
     Program PWSCF v.6.8 starts on  9Dec2021 at  3:30:24 

     This program is part of the open-source Quantum ESPRESSO suite
     for quantum simulation of materials; please cite
         "P. Giannozzi et al., J. Phys.:Condens. Matter 21 395502 (2009);
         "P. Giannozzi et al., J. Phys.:Condens. Matter 29 465901 (2017);
         "P. Giannozzi et al., J. Chem. Phys. 152 154105 (2020);
          URL http://www.quantum-espresso.org", 
     in publications or presentations arising from this work. More details at
     http://www.quantum-espresso.org/quote

     Parallel version (MPI), running on    32 processors

     MPI processes distributed on     1 nodes
     R & G space division:  proc/nbgrp/npool/nimage =      32
     34089 MiB available memory on the printing compute node when the environment starts

     Reading input from runu.in
Warning: card &CELL ignored
Warning: card    CELL_DYNAMICS = 'BFGS' , ignored
Warning: card    CELL_DOFREE = 'ALL', ignored
Warning: card    PRESS_CONV_THR = 0.5 , ! THIS IS THE DEFAULT ignored
Warning: card  / ignored

     Current dimensions of program PWSCF are:
     Max number of different atomic species (ntypx) = 10
     Max number of k-points (npk) =  40000
     Max angular momentum in pseudopotentials (lmaxx) =  4
     file U.pbe-spfn-rrkjus_psl.1.0.0.UPF: wavefunction(s)  5F renormalized
     Found symmetry operation: I + ( -0.5000 -0.5000  0.0000)
     This is a supercell, fractional translations are disabled
     Message from routine setup:
     using ibrav=0 with symmetry is DISCOURAGED, use correct ibrav instead

     Subspace diagonalization in iterative solution of the eigenvalue problem:
     a serial algorithm will be used


     Parallelization info
     --------------------
     sticks:   dense  smooth     PW     G-vecs:    dense   smooth      PW
     Min         167      83     23                 9167     3242     483
     Max         168      85     24                 9170     3246     488
     Sum        5357    2681    749               293371   103791   15515

     Using Slab Decomposition



     bravais-lattice index     =            0
     lattice parameter (alat)  =       8.3655  a.u.
     unit-cell volume          =     584.2623 (a.u.)^3
     number of atoms/cell      =            4
     number of atomic types    =            1
     number of electrons       =        56.00
     number of Kohn-Sham states=           32
     kinetic-energy cutoff     =     120.0000  Ry
     charge density cutoff     =     960.0000  Ry
     scf convergence threshold =      1.0E-08
     mixing beta               =       0.5000
     number of iterations used =            8  plain     mixing
     Exchange-correlation= PBE
                           (   1   4   3   4   0   0   0)

     celldm(1)=   8.365501  celldm(2)=   0.000000  celldm(3)=   0.000000
     celldm(4)=   0.000000  celldm(5)=   0.000000  celldm(6)=   0.000000

     crystal axes: (cart. coord. in units of alat)
               a(1) = (   1.000000   0.000000   0.000000 )  
               a(2) = (   0.000000   0.999001   0.000000 )  
               a(3) = (   0.000000   0.000000   0.999001 )  

     reciprocal axes: (cart. coord. in units 2 pi/alat)
               b(1) = (  1.000000  0.000000  0.000000 )  
               b(2) = (  0.000000  1.001000  0.000000 )  
               b(3) = (  0.000000  0.000000  1.001000 )  


     PseudoPot. # 1 for U  read from file:
     /home/myhawary/QE/runs/pseudo/U.pbe-spfn-rrkjus_psl.1.0.0.UPF
     MD5 check sum: b50a7459bb2a1ad67e79ea3a31ec714c
     Pseudo is Ultrasoft + core correction, Zval = 14.0
     Generated using &quot;atomic&quot; code by A. Dal Corso  v.6.2.2
     Using radial grid of 1291 points,  8 beta functions with: 
                l(1) =   0
                l(2) =   0
                l(3) =   1
                l(4) =   1
                l(5) =   2
                l(6) =   2
                l(7) =   3
                l(8) =   3
     Q(r) pseudized with 0 coefficients 


     atomic species   valence    mass     pseudopotential
        U             14.00   238.00000     U ( 1.00)

     Starting magnetic structure 
     atomic species   magnetization
        U            0.100

     16 Sym. Ops., with inversion, found


                                    s                        frac. trans.

      isym =  1     identity                                     

 cryst.   s( 1) = (     1          0          0      )
                  (     0          1          0      )
                  (     0          0          1      )

 cart.    s( 1) = (  1.0000000  0.0000000  0.0000000 )
                  (  0.0000000  1.0000000  0.0000000 )
                  (  0.0000000  0.0000000  1.0000000 )


      isym =  2     180 deg rotation - cart. axis [0,0,1]        

 cryst.   s( 2) = (    -1          0          0      )
                  (     0         -1          0      )
                  (     0          0          1      )

 cart.    s( 2) = ( -1.0000000  0.0000000  0.0000000 )
                  (  0.0000000 -1.0000000  0.0000000 )
                  (  0.0000000  0.0000000  1.0000000 )


      isym =  3     180 deg rotation - cart. axis [0,1,0]        

 cryst.   s( 3) = (    -1          0          0      )
                  (     0          1          0      )
                  (     0          0         -1      )

 cart.    s( 3) = ( -1.0000000  0.0000000  0.0000000 )
                  (  0.0000000  1.0000000  0.0000000 )
                  (  0.0000000  0.0000000 -1.0000000 )


      isym =  4     180 deg rotation - cart. axis [1,0,0]        

 cryst.   s( 4) = (     1          0          0      )
                  (     0         -1          0      )
                  (     0          0         -1      )

 cart.    s( 4) = (  1.0000000  0.0000000  0.0000000 )
                  (  0.0000000 -1.0000000  0.0000000 )
                  (  0.0000000  0.0000000 -1.0000000 )


      isym =  5     180 deg rotation - cart. axis [0,1,1]        

 cryst.   s( 5) = (    -1          0          0      )
                  (     0          0          1      )
                  (     0          1          0      )

 cart.    s( 5) = ( -1.0000000  0.0000000  0.0000000 )
                  (  0.0000000  0.0000000  1.0000000 )
                  (  0.0000000  1.0000000  0.0000000 )


      isym =  6     180 deg rotation - cart. axis [0,1,-1]       

 cryst.   s( 6) = (    -1          0          0      )
                  (     0          0         -1      )
                  (     0         -1          0      )

 cart.    s( 6) = ( -1.0000000  0.0000000  0.0000000 )
                  (  0.0000000  0.0000000 -1.0000000 )
                  (  0.0000000 -1.0000000  0.0000000 )


      isym =  7      90 deg rotation - cart. axis [-1,0,0]       

 cryst.   s( 7) = (     1          0          0      )
                  (     0          0         -1      )
                  (     0          1          0      )

 cart.    s( 7) = (  1.0000000  0.0000000  0.0000000 )
                  (  0.0000000  0.0000000  1.0000000 )
                  (  0.0000000 -1.0000000  0.0000000 )


      isym =  8      90 deg rotation - cart. axis [1,0,0]        

 cryst.   s( 8) = (     1          0          0      )
                  (     0          0          1      )
                  (     0         -1          0      )

 cart.    s( 8) = (  1.0000000  0.0000000  0.0000000 )
                  (  0.0000000  0.0000000 -1.0000000 )
                  (  0.0000000  1.0000000  0.0000000 )


      isym =  9     inversion                                    

 cryst.   s( 9) = (    -1          0          0      )
                  (     0         -1          0      )
                  (     0          0         -1      )

 cart.    s( 9) = ( -1.0000000  0.0000000  0.0000000 )
                  (  0.0000000 -1.0000000  0.0000000 )
                  (  0.0000000  0.0000000 -1.0000000 )


      isym = 10     inv. 180 deg rotation - cart. axis [0,0,1]   

 cryst.   s(10) = (     1          0          0      )
                  (     0          1          0      )
                  (     0          0         -1      )

 cart.    s(10) = (  1.0000000  0.0000000  0.0000000 )
                  (  0.0000000  1.0000000  0.0000000 )
                  (  0.0000000  0.0000000 -1.0000000 )


      isym = 11     inv. 180 deg rotation - cart. axis [0,1,0]   

 cryst.   s(11) = (     1          0          0      )
                  (     0         -1          0      )
                  (     0          0          1      )

 cart.    s(11) = (  1.0000000  0.0000000  0.0000000 )
                  (  0.0000000 -1.0000000  0.0000000 )
                  (  0.0000000  0.0000000  1.0000000 )


      isym = 12     inv. 180 deg rotation - cart. axis [1,0,0]   

 cryst.   s(12) = (    -1          0          0      )
                  (     0          1          0      )
                  (     0          0          1      )

 cart.    s(12) = ( -1.0000000  0.0000000  0.0000000 )
                  (  0.0000000  1.0000000  0.0000000 )
                  (  0.0000000  0.0000000  1.0000000 )


      isym = 13     inv. 180 deg rotation - cart. axis [0,1,1]   

 cryst.   s(13) = (     1          0          0      )
                  (     0          0         -1      )
                  (     0         -1          0      )

 cart.    s(13) = (  1.0000000  0.0000000  0.0000000 )
                  (  0.0000000  0.0000000 -1.0000000 )
                  (  0.0000000 -1.0000000  0.0000000 )


      isym = 14     inv. 180 deg rotation - cart. axis [0,1,-1]  

 cryst.   s(14) = (     1          0          0      )
                  (     0          0          1      )
                  (     0          1          0      )

 cart.    s(14) = (  1.0000000  0.0000000  0.0000000 )
                  (  0.0000000  0.0000000  1.0000000 )
                  (  0.0000000  1.0000000  0.0000000 )


      isym = 15     inv.  90 deg rotation - cart. axis [-1,0,0]  

 cryst.   s(15) = (    -1          0          0      )
                  (     0          0          1      )
                  (     0         -1          0      )

 cart.    s(15) = ( -1.0000000  0.0000000  0.0000000 )
                  (  0.0000000  0.0000000 -1.0000000 )
                  (  0.0000000  1.0000000  0.0000000 )


      isym = 16     inv.  90 deg rotation - cart. axis [1,0,0]   

 cryst.   s(16) = (    -1          0          0      )
                  (     0          0         -1      )
                  (     0          1          0      )

 cart.    s(16) = ( -1.0000000  0.0000000  0.0000000 )
                  (  0.0000000  0.0000000  1.0000000 )
                  (  0.0000000 -1.0000000  0.0000000 )


   Cartesian axes

     site n.     atom                  positions (alat units)
         1           U   tau(   1) = (   0.0000000   0.0000000   0.0000000  )
         2           U   tau(   2) = (   0.5000000   0.4995005   0.0000000  )
         3           U   tau(   3) = (   0.5000000   0.0000000   0.4995005  )
         4           U   tau(   4) = (   0.0000000   0.4995005   0.4995005  )

   Crystallographic axes

     site n.     atom                  positions (cryst. coord.)
         1           U   tau(   1) = (  0.0000000  0.0000000  0.0000000  )
         2           U   tau(   2) = (  0.5000000  0.5000000  0.0000000  )
         3           U   tau(   3) = (  0.5000000  0.0000000  0.5000000  )
         4           U   tau(   4) = (  0.0000000  0.5000000  0.5000000  )

     number of k points=    40  Marzari-Vanderbilt smearing, width (Ry)=  0.0500
                       cart. coord. in units 2pi/alat
        k(    1) = (   0.0000000   0.0000000   0.0000000), wk =   0.0046296
        k(    2) = (   0.0000000   0.0000000   0.1668333), wk =   0.0185185
        k(    3) = (   0.0000000   0.0000000   0.3336666), wk =   0.0185185
        k(    4) = (   0.0000000   0.0000000  -0.5005000), wk =   0.0092593
        k(    5) = (   0.0000000   0.1668333   0.1668333), wk =   0.0185185
        k(    6) = (   0.0000000   0.1668333   0.3336666), wk =   0.0370370
        k(    7) = (   0.0000000   0.1668333  -0.5005000), wk =   0.0185185
        k(    8) = (   0.0000000   0.3336666   0.3336666), wk =   0.0185185
        k(    9) = (   0.0000000   0.3336666  -0.5005000), wk =   0.0185185
        k(   10) = (   0.0000000  -0.5005000  -0.5005000), wk =   0.0046296
        k(   11) = (   0.1666667   0.0000000   0.0000000), wk =   0.0092593
        k(   12) = (   0.1666667   0.0000000   0.1668333), wk =   0.0370370
        k(   13) = (   0.1666667   0.0000000   0.3336666), wk =   0.0370370
        k(   14) = (   0.1666667   0.0000000  -0.5005000), wk =   0.0185185
        k(   15) = (   0.1666667   0.1668333   0.1668333), wk =   0.0370370
        k(   16) = (   0.1666667   0.1668333   0.3336666), wk =   0.0740741
        k(   17) = (   0.1666667   0.1668333  -0.5005000), wk =   0.0370370
        k(   18) = (   0.1666667   0.3336666   0.3336666), wk =   0.0370370
        k(   19) = (   0.1666667   0.3336666  -0.5005000), wk =   0.0370370
        k(   20) = (   0.1666667  -0.5005000  -0.5005000), wk =   0.0092593
        k(   21) = (   0.3333333   0.0000000   0.0000000), wk =   0.0092593
        k(   22) = (   0.3333333   0.0000000   0.1668333), wk =   0.0370370
        k(   23) = (   0.3333333   0.0000000   0.3336666), wk =   0.0370370
        k(   24) = (   0.3333333   0.0000000  -0.5005000), wk =   0.0185185
        k(   25) = (   0.3333333   0.1668333   0.1668333), wk =   0.0370370
        k(   26) = (   0.3333333   0.1668333   0.3336666), wk =   0.0740741
        k(   27) = (   0.3333333   0.1668333  -0.5005000), wk =   0.0370370
        k(   28) = (   0.3333333   0.3336666   0.3336666), wk =   0.0370370
        k(   29) = (   0.3333333   0.3336666  -0.5005000), wk =   0.0370370
        k(   30) = (   0.3333333  -0.5005000  -0.5005000), wk =   0.0092593
        k(   31) = (  -0.5000000   0.0000000   0.0000000), wk =   0.0046296
        k(   32) = (  -0.5000000   0.0000000   0.1668333), wk =   0.0185185
        k(   33) = (  -0.5000000   0.0000000   0.3336666), wk =   0.0185185
        k(   34) = (  -0.5000000   0.0000000  -0.5005000), wk =   0.0092593
        k(   35) = (  -0.5000000   0.1668333   0.1668333), wk =   0.0185185
        k(   36) = (  -0.5000000   0.1668333   0.3336666), wk =   0.0370370
        k(   37) = (  -0.5000000   0.1668333  -0.5005000), wk =   0.0185185
        k(   38) = (  -0.5000000   0.3336666   0.3336666), wk =   0.0185185
        k(   39) = (  -0.5000000   0.3336666  -0.5005000), wk =   0.0185185
        k(   40) = (  -0.5000000  -0.5005000  -0.5005000), wk =   0.0046296

                       cryst. coord.
        k(    1) = (   0.0000000   0.0000000   0.0000000), wk =   0.0046296
        k(    2) = (   0.0000000   0.0000000   0.1666667), wk =   0.0185185
        k(    3) = (   0.0000000   0.0000000   0.3333333), wk =   0.0185185
        k(    4) = (   0.0000000   0.0000000  -0.5000000), wk =   0.0092593
        k(    5) = (   0.0000000   0.1666667   0.1666667), wk =   0.0185185
        k(    6) = (   0.0000000   0.1666667   0.3333333), wk =   0.0370370
        k(    7) = (   0.0000000   0.1666667  -0.5000000), wk =   0.0185185
        k(    8) = (   0.0000000   0.3333333   0.3333333), wk =   0.0185185
        k(    9) = (   0.0000000   0.3333333  -0.5000000), wk =   0.0185185
        k(   10) = (   0.0000000  -0.5000000  -0.5000000), wk =   0.0046296
        k(   11) = (   0.1666667   0.0000000   0.0000000), wk =   0.0092593
        k(   12) = (   0.1666667   0.0000000   0.1666667), wk =   0.0370370
        k(   13) = (   0.1666667   0.0000000   0.3333333), wk =   0.0370370
        k(   14) = (   0.1666667   0.0000000  -0.5000000), wk =   0.0185185
        k(   15) = (   0.1666667   0.1666667   0.1666667), wk =   0.0370370
        k(   16) = (   0.1666667   0.1666667   0.3333333), wk =   0.0740741
        k(   17) = (   0.1666667   0.1666667  -0.5000000), wk =   0.0370370
        k(   18) = (   0.1666667   0.3333333   0.3333333), wk =   0.0370370
        k(   19) = (   0.1666667   0.3333333  -0.5000000), wk =   0.0370370
        k(   20) = (   0.1666667  -0.5000000  -0.5000000), wk =   0.0092593
        k(   21) = (   0.3333333   0.0000000   0.0000000), wk =   0.0092593
        k(   22) = (   0.3333333   0.0000000   0.1666667), wk =   0.0370370
        k(   23) = (   0.3333333   0.0000000   0.3333333), wk =   0.0370370
        k(   24) = (   0.3333333   0.0000000  -0.5000000), wk =   0.0185185
        k(   25) = (   0.3333333   0.1666667   0.1666667), wk =   0.0370370
        k(   26) = (   0.3333333   0.1666667   0.3333333), wk =   0.0740741
        k(   27) = (   0.3333333   0.1666667  -0.5000000), wk =   0.0370370
        k(   28) = (   0.3333333   0.3333333   0.3333333), wk =   0.0370370
        k(   29) = (   0.3333333   0.3333333  -0.5000000), wk =   0.0370370
        k(   30) = (   0.3333333  -0.5000000  -0.5000000), wk =   0.0092593
        k(   31) = (  -0.5000000   0.0000000   0.0000000), wk =   0.0046296
        k(   32) = (  -0.5000000   0.0000000   0.1666667), wk =   0.0185185
        k(   33) = (  -0.5000000   0.0000000   0.3333333), wk =   0.0185185
        k(   34) = (  -0.5000000   0.0000000  -0.5000000), wk =   0.0092593
        k(   35) = (  -0.5000000   0.1666667   0.1666667), wk =   0.0185185
        k(   36) = (  -0.5000000   0.1666667   0.3333333), wk =   0.0370370
        k(   37) = (  -0.5000000   0.1666667  -0.5000000), wk =   0.0185185
        k(   38) = (  -0.5000000   0.3333333   0.3333333), wk =   0.0185185
        k(   39) = (  -0.5000000   0.3333333  -0.5000000), wk =   0.0185185
        k(   40) = (  -0.5000000  -0.5000000  -0.5000000), wk =   0.0046296

     Dense  grid:   293371 G-vectors     FFT dimensions: (  90,  90,  90)

     Smooth grid:   103791 G-vectors     FFT dimensions: (  60,  60,  60)

     Dynamical RAM for                 wfc:       0.20 MB

     Dynamical RAM for     wfc (w. buffer):      16.02 MB

     Dynamical RAM for           str. fact:       0.14 MB

     Dynamical RAM for           local pot:       0.00 MB

     Dynamical RAM for          nlocal pot:       0.79 MB

     Dynamical RAM for                qrad:       5.96 MB

     Dynamical RAM for          rho,v,vnew:       1.95 MB

     Dynamical RAM for               rhoin:       0.65 MB

     Dynamical RAM for            rho*nmix:       4.48 MB

     Dynamical RAM for           G-vectors:       0.55 MB

     Dynamical RAM for          h,s,v(r/c):       0.19 MB

     Dynamical RAM for          <psi|beta>:       0.06 MB

     Dynamical RAM for                 psi:       0.40 MB

     Dynamical RAM for                hpsi:       0.40 MB

     Dynamical RAM for                spsi:       0.40 MB

     Dynamical RAM for      wfcinit/wfcrot:       0.42 MB

     Dynamical RAM for           addusdens:      78.36 MB

     Dynamical RAM for          addusforce:      79.29 MB

     Dynamical RAM for         addusstress:      81.65 MB

     Estimated static dynamical RAM per process >      27.46 MB

     Estimated max dynamical RAM per process >     113.58 MB

     Estimated total dynamical RAM >       3.55 GB
     Generating pointlists ...
     new r_m :   0.2914 (alat units)  2.4376 (a.u.) for type    1

     Initial potential from superposition of free atoms

     starting charge   55.98204, renormalised to   56.00000
     Starting wfcs are random

     total cpu time spent up to now is        7.9 secs

     Self-consistent Calculation

     iteration #  1     ecut=   120.00 Ry     beta= 0.50
     Davidson diagonalization with overlap

---- Real-time Memory Report at c_bands before calling an iterative solver
           115 MiB given to the printing process from OS
             0 MiB allocation reported by mallinfo(arena+hblkhd)
         32812 MiB available memory on the node where the printing process lives
------------------
     ethr =  1.00E-02,  avg # of iterations = 11.3

     total cpu time spent up to now is       57.2 secs

     total energy              =    -516.17252721 Ry
     estimated scf accuracy    <       1.77639582 Ry

     total magnetization       =     2.31 Bohr mag/cell
     absolute magnetization    =     2.31 Bohr mag/cell

     iteration #  2     ecut=   120.00 Ry     beta= 0.50
     Davidson diagonalization with overlap

---- Real-time Memory Report at c_bands before calling an iterative solver
           134 MiB given to the printing process from OS
             0 MiB allocation reported by mallinfo(arena+hblkhd)
         32592 MiB available memory on the node where the printing process lives
------------------
     ethr =  3.17E-03,  avg # of iterations =  7.0

     total cpu time spent up to now is       88.0 secs

     total energy              =    -517.14676474 Ry
     estimated scf accuracy    <       1.57131628 Ry

     total magnetization       =     2.62 Bohr mag/cell
     absolute magnetization    =     2.62 Bohr mag/cell

     iteration #  3     ecut=   120.00 Ry     beta= 0.50
     Davidson diagonalization with overlap

---- Real-time Memory Report at c_bands before calling an iterative solver
           134 MiB given to the printing process from OS
             0 MiB allocation reported by mallinfo(arena+hblkhd)
         32584 MiB available memory on the node where the printing process lives
------------------
     ethr =  2.81E-03,  avg # of iterations =  2.1

     total cpu time spent up to now is      105.6 secs

     total energy              =    -517.31822534 Ry
     estimated scf accuracy    <       0.19290706 Ry

     total magnetization       =     1.93 Bohr mag/cell
     absolute magnetization    =     1.94 Bohr mag/cell

     iteration #  4     ecut=   120.00 Ry     beta= 0.50
     Davidson diagonalization with overlap

---- Real-time Memory Report at c_bands before calling an iterative solver
           135 MiB given to the printing process from OS
             0 MiB allocation reported by mallinfo(arena+hblkhd)
         32560 MiB available memory on the node where the printing process lives
------------------
     c_bands:  5 eigenvalues not converged
     c_bands:  2 eigenvalues not converged
     c_bands:  1 eigenvalues not converged
     c_bands:  3 eigenvalues not converged
     c_bands:  1 eigenvalues not converged
     c_bands:  3 eigenvalues not converged
     c_bands:  2 eigenvalues not converged
     c_bands:  3 eigenvalues not converged
     c_bands:  1 eigenvalues not converged
     c_bands:  3 eigenvalues not converged
     c_bands:  1 eigenvalues not converged
     c_bands:  2 eigenvalues not converged
     c_bands:  3 eigenvalues not converged
     c_bands:  2 eigenvalues not converged
     c_bands:  1 eigenvalues not converged
     c_bands:  4 eigenvalues not converged
     c_bands:  1 eigenvalues not converged
     c_bands:  3 eigenvalues not converged
     c_bands:  4 eigenvalues not converged
     c_bands:  1 eigenvalues not converged
     c_bands:  3 eigenvalues not converged
     c_bands:  1 eigenvalues not converged
     c_bands:  2 eigenvalues not converged
     c_bands:  4 eigenvalues not converged
     c_bands:  1 eigenvalues not converged
     c_bands:  3 eigenvalues not converged
     c_bands:  1 eigenvalues not converged
     c_bands:  1 eigenvalues not converged
     c_bands:  1 eigenvalues not converged
     c_bands:  1 eigenvalues not converged
     c_bands:  1 eigenvalues not converged
     c_bands:  1 eigenvalues not converged
     c_bands:  1 eigenvalues not converged
     c_bands:  3 eigenvalues not converged
     c_bands:  2 eigenvalues not converged
     c_bands:  1 eigenvalues not converged
     c_bands:  1 eigenvalues not converged
     c_bands:  3 eigenvalues not converged
     c_bands:  4 eigenvalues not converged
     c_bands:  1 eigenvalues not converged
     c_bands:  3 eigenvalues not converged
     c_bands:  1 eigenvalues not converged
     c_bands:  1 eigenvalues not converged
     c_bands:  5 eigenvalues not converged
     c_bands:  1 eigenvalues not converged
     ethr =  3.44E-04,  avg # of iterations = 17.7

     total cpu time spent up to now is      144.1 secs

     total energy              =    -517.43050934 Ry
     estimated scf accuracy    <       0.40421724 Ry

     total magnetization       =     2.24 Bohr mag/cell
     absolute magnetization    =     2.25 Bohr mag/cell

     iteration #  5     ecut=   120.00 Ry     beta= 0.50
     Davidson diagonalization with overlap

---- Real-time Memory Report at c_bands before calling an iterative solver
           135 MiB given to the printing process from OS
             0 MiB allocation reported by mallinfo(arena+hblkhd)
         32548 MiB available memory on the node where the printing process lives
------------------
     c_bands:  1 eigenvalues not converged
     c_bands:  1 eigenvalues not converged
     c_bands:  1 eigenvalues not converged
     c_bands:  1 eigenvalues not converged
     c_bands:  2 eigenvalues not converged
     c_bands:  1 eigenvalues not converged
     c_bands:  3 eigenvalues not converged
     c_bands:  2 eigenvalues not converged
     c_bands:  1 eigenvalues not converged
     c_bands:  2 eigenvalues not converged
     c_bands:  1 eigenvalues not converged
     c_bands:  2 eigenvalues not converged
     c_bands:  1 eigenvalues not converged
     ethr =  3.44E-04,  avg # of iterations = 11.7

     total cpu time spent up to now is      167.9 secs

     total energy              =    -517.46352756 Ry
     estimated scf accuracy    <       0.06285569 Ry

     total magnetization       =     2.00 Bohr mag/cell
     absolute magnetization    =     2.01 Bohr mag/cell

     iteration #  6     ecut=   120.00 Ry     beta= 0.50
     Davidson diagonalization with overlap

---- Real-time Memory Report at c_bands before calling an iterative solver
           135 MiB given to the printing process from OS
             0 MiB allocation reported by mallinfo(arena+hblkhd)
         32542 MiB available memory on the node where the printing process lives
------------------
     c_bands:  1 eigenvalues not converged
     c_bands:  1 eigenvalues not converged
     c_bands:  1 eigenvalues not converged
     c_bands:  1 eigenvalues not converged
     c_bands:  1 eigenvalues not converged
     c_bands:  1 eigenvalues not converged
     c_bands:  1 eigenvalues not converged
     c_bands:  1 eigenvalues not converged
     c_bands:  2 eigenvalues not converged
     c_bands:  3 eigenvalues not converged
     c_bands:  1 eigenvalues not converged
     c_bands:  4 eigenvalues not converged
     c_bands:  1 eigenvalues not converged
     c_bands:  1 eigenvalues not converged
     c_bands:  2 eigenvalues not converged
     c_bands:  2 eigenvalues not converged
     c_bands:  2 eigenvalues not converged
     c_bands:  1 eigenvalues not converged
     c_bands:  4 eigenvalues not converged
     c_bands:  4 eigenvalues not converged
     c_bands:  2 eigenvalues not converged
     c_bands:  2 eigenvalues not converged
     c_bands:  3 eigenvalues not converged
     c_bands:  3 eigenvalues not converged
     c_bands:  1 eigenvalues not converged
     c_bands:  1 eigenvalues not converged
     c_bands:  4 eigenvalues not converged
     c_bands:  1 eigenvalues not converged
     c_bands:  2 eigenvalues not converged
     c_bands:  1 eigenvalues not converged
     c_bands:  4 eigenvalues not converged
     c_bands:  2 eigenvalues not converged
     c_bands:  4 eigenvalues not converged
     c_bands:  5 eigenvalues not converged
     c_bands:  1 eigenvalues not converged
     ethr =  1.12E-04,  avg # of iterations = 16.2

     total cpu time spent up to now is      198.0 secs

     total energy              =    -517.47599508 Ry
     estimated scf accuracy    <       0.07229470 Ry

     total magnetization       =     1.96 Bohr mag/cell
     absolute magnetization    =     1.97 Bohr mag/cell

     iteration #  7     ecut=   120.00 Ry     beta= 0.50
     Davidson diagonalization with overlap

---- Real-time Memory Report at c_bands before calling an iterative solver
           136 MiB given to the printing process from OS
             0 MiB allocation reported by mallinfo(arena+hblkhd)
         32530 MiB available memory on the node where the printing process lives
------------------
     c_bands:  1 eigenvalues not converged
     c_bands:  2 eigenvalues not converged
     c_bands:  1 eigenvalues not converged
     c_bands:  2 eigenvalues not converged
     c_bands:  1 eigenvalues not converged
     c_bands:  1 eigenvalues not converged
     c_bands:  2 eigenvalues not converged
     c_bands:  2 eigenvalues not converged
     ethr =  1.12E-04,  avg # of iterations =  7.3

     total cpu time spent up to now is      218.2 secs

     total energy              =    -517.48309608 Ry
     estimated scf accuracy    <       0.00835751 Ry

     total magnetization       =     1.87 Bohr mag/cell
     absolute magnetization    =     1.88 Bohr mag/cell

     iteration #  8     ecut=   120.00 Ry     beta= 0.50
     Davidson diagonalization with overlap

---- Real-time Memory Report at c_bands before calling an iterative solver
           136 MiB given to the printing process from OS
             0 MiB allocation reported by mallinfo(arena+hblkhd)
         32522 MiB available memory on the node where the printing process lives
------------------
     c_bands:  1 eigenvalues not converged
     c_bands:  1 eigenvalues not converged
     c_bands:  1 eigenvalues not converged
     c_bands:  2 eigenvalues not converged
     c_bands:  1 eigenvalues not converged
     c_bands:  1 eigenvalues not converged
     c_bands:  2 eigenvalues not converged
     c_bands:  1 eigenvalues not converged
     c_bands:  1 eigenvalues not converged
     c_bands:  3 eigenvalues not converged
     c_bands:  1 eigenvalues not converged
     c_bands:  2 eigenvalues not converged
     c_bands:  1 eigenvalues not converged
     c_bands:  1 eigenvalues not converged
     c_bands:  2 eigenvalues not converged
     c_bands:  1 eigenvalues not converged
     c_bands:  1 eigenvalues not converged
     c_bands:  2 eigenvalues not converged
     c_bands:  5 eigenvalues not converged
     c_bands:  3 eigenvalues not converged
     c_bands:  4 eigenvalues not converged
     c_bands:  1 eigenvalues not converged
     c_bands:  1 eigenvalues not converged
     c_bands:  1 eigenvalues not converged
     c_bands:  1 eigenvalues not converged
     c_bands:  1 eigenvalues not converged
     c_bands:  2 eigenvalues not converged
     c_bands:  2 eigenvalues not converged
     c_bands:  2 eigenvalues not converged
     c_bands:  1 eigenvalues not converged
     c_bands:  3 eigenvalues not converged
     c_bands:  1 eigenvalues not converged
     c_bands:  2 eigenvalues not converged
     c_bands:  1 eigenvalues not converged
     c_bands:  2 eigenvalues not converged
     c_bands:  3 eigenvalues not converged
     c_bands:  1 eigenvalues not converged
     c_bands:  1 eigenvalues not converged
     c_bands:  1 eigenvalues not converged
     c_bands:  1 eigenvalues not converged
     c_bands:  4 eigenvalues not converged
     c_bands:  1 eigenvalues not converged
     c_bands:  5 eigenvalues not converged
     ethr =  1.49E-05,  avg # of iterations = 18.2

     total cpu time spent up to now is      257.8 secs

     total energy              =    -517.48987968 Ry
     estimated scf accuracy    <       0.03364677 Ry

     total magnetization       =     1.72 Bohr mag/cell
     absolute magnetization    =     1.74 Bohr mag/cell

     iteration #  9     ecut=   120.00 Ry     beta= 0.50
     Davidson diagonalization with overlap

---- Real-time Memory Report at c_bands before calling an iterative solver
           137 MiB given to the printing process from OS
             0 MiB allocation reported by mallinfo(arena+hblkhd)
         32513 MiB available memory on the node where the printing process lives
------------------
     c_bands:  1 eigenvalues not converged
     c_bands:  1 eigenvalues not converged
     c_bands:  1 eigenvalues not converged
     c_bands:  1 eigenvalues not converged
     c_bands:  1 eigenvalues not converged
     c_bands:  1 eigenvalues not converged
     c_bands:  1 eigenvalues not converged
     c_bands:  1 eigenvalues not converged
     c_bands:  2 eigenvalues not converged
     c_bands:  2 eigenvalues not converged
     ethr =  1.49E-05,  avg # of iterations =  5.3

     total cpu time spent up to now is      275.5 secs

     total energy              =    -517.48893917 Ry
     estimated scf accuracy    <       0.01585147 Ry

     total magnetization       =     1.64 Bohr mag/cell
     absolute magnetization    =     1.67 Bohr mag/cell

     iteration # 10     ecut=   120.00 Ry     beta= 0.50
     Davidson diagonalization with overlap

---- Real-time Memory Report at c_bands before calling an iterative solver
           137 MiB given to the printing process from OS
             0 MiB allocation reported by mallinfo(arena+hblkhd)
         32506 MiB available memory on the node where the printing process lives
------------------
     c_bands:  1 eigenvalues not converged
     c_bands:  1 eigenvalues not converged
     c_bands:  2 eigenvalues not converged
     c_bands:  1 eigenvalues not converged
     c_bands:  2 eigenvalues not converged
     c_bands:  3 eigenvalues not converged
     c_bands:  1 eigenvalues not converged
     c_bands:  1 eigenvalues not converged
     c_bands:  1 eigenvalues not converged
     c_bands:  2 eigenvalues not converged
     c_bands:  1 eigenvalues not converged
     c_bands:  1 eigenvalues not converged
     c_bands:  1 eigenvalues not converged
     c_bands:  1 eigenvalues not converged
     c_bands:  1 eigenvalues not converged
     c_bands:  3 eigenvalues not converged
     c_bands:  2 eigenvalues not converged
     ethr =  1.49E-05,  avg # of iterations = 13.3

     total cpu time spent up to now is      303.7 secs

     total energy              =    -517.49202499 Ry
     estimated scf accuracy    <       0.01212382 Ry

     total magnetization       =     1.52 Bohr mag/cell
     absolute magnetization    =     1.54 Bohr mag/cell

     iteration # 11     ecut=   120.00 Ry     beta= 0.50
     Davidson diagonalization with overlap

---- Real-time Memory Report at c_bands before calling an iterative solver
           137 MiB given to the printing process from OS
             0 MiB allocation reported by mallinfo(arena+hblkhd)
         32500 MiB available memory on the node where the printing process lives
------------------
     c_bands:  1 eigenvalues not converged
     c_bands:  1 eigenvalues not converged
     c_bands:  2 eigenvalues not converged
     c_bands:  1 eigenvalues not converged
     c_bands:  3 eigenvalues not converged
     ethr =  1.49E-05,  avg # of iterations =  2.5

     total cpu time spent up to now is      319.4 secs

     total energy              =    -517.49115634 Ry
     estimated scf accuracy    <       0.01345646 Ry

     total magnetization       =     1.43 Bohr mag/cell
     absolute magnetization    =     1.45 Bohr mag/cell

     iteration # 12     ecut=   120.00 Ry     beta= 0.50
     Davidson diagonalization with overlap

---- Real-time Memory Report at c_bands before calling an iterative solver
           137 MiB given to the printing process from OS
             0 MiB allocation reported by mallinfo(arena+hblkhd)
         32504 MiB available memory on the node where the printing process lives
------------------
     c_bands:  4 eigenvalues not converged
     c_bands:  1 eigenvalues not converged
     ethr =  1.49E-05,  avg # of iterations =  2.1

     total cpu time spent up to now is      334.8 secs

     total energy              =    -517.49123075 Ry
     estimated scf accuracy    <       0.00399115 Ry

     total magnetization       =     1.39 Bohr mag/cell
     absolute magnetization    =     1.42 Bohr mag/cell

     iteration # 13     ecut=   120.00 Ry     beta= 0.50
     Davidson diagonalization with overlap

---- Real-time Memory Report at c_bands before calling an iterative solver
           137 MiB given to the printing process from OS
             0 MiB allocation reported by mallinfo(arena+hblkhd)
         32502 MiB available memory on the node where the printing process lives
------------------
     c_bands:  3 eigenvalues not converged
     c_bands:  1 eigenvalues not converged
     c_bands:  3 eigenvalues not converged
     c_bands:  1 eigenvalues not converged
     c_bands:  1 eigenvalues not converged
     c_bands:  3 eigenvalues not converged
     c_bands:  1 eigenvalues not converged
     c_bands:  1 eigenvalues not converged
     c_bands:  1 eigenvalues not converged
     c_bands:  2 eigenvalues not converged
     ethr =  7.13E-06,  avg # of iterations = 10.3

     total cpu time spent up to now is      356.2 secs

     total energy              =    -517.49174730 Ry
     estimated scf accuracy    <       0.00047878 Ry

     total magnetization       =     1.35 Bohr mag/cell
     absolute magnetization    =     1.38 Bohr mag/cell

     iteration # 14     ecut=   120.00 Ry     beta= 0.50
     Davidson diagonalization with overlap

---- Real-time Memory Report at c_bands before calling an iterative solver
           137 MiB given to the printing process from OS
             0 MiB allocation reported by mallinfo(arena+hblkhd)
         32500 MiB available memory on the node where the printing process lives
------------------
     c_bands:  1 eigenvalues not converged
     c_bands:  2 eigenvalues not converged
     c_bands:  3 eigenvalues not converged
     c_bands:  1 eigenvalues not converged
     c_bands:  1 eigenvalues not converged
     c_bands:  2 eigenvalues not converged
     c_bands:  4 eigenvalues not converged
     c_bands:  1 eigenvalues not converged
     c_bands:  2 eigenvalues not converged
     c_bands:  2 eigenvalues not converged
     c_bands:  4 eigenvalues not converged
     c_bands:  1 eigenvalues not converged
     c_bands:  4 eigenvalues not converged
     c_bands:  1 eigenvalues not converged
     c_bands:  2 eigenvalues not converged
     c_bands:  4 eigenvalues not converged
     c_bands:  1 eigenvalues not converged
     c_bands:  1 eigenvalues not converged
     c_bands:  2 eigenvalues not converged
     c_bands:  4 eigenvalues not converged
     c_bands:  1 eigenvalues not converged
     c_bands:  1 eigenvalues not converged
     c_bands:  2 eigenvalues not converged
     c_bands:  1 eigenvalues not converged
     c_bands:  1 eigenvalues not converged
     c_bands:  2 eigenvalues not converged
     c_bands:  4 eigenvalues not converged
     c_bands:  3 eigenvalues not converged
     c_bands:  1 eigenvalues not converged
     c_bands:  2 eigenvalues not converged
     c_bands:  1 eigenvalues not converged
     c_bands:  1 eigenvalues not converged
     c_bands:  2 eigenvalues not converged
     c_bands:  2 eigenvalues not converged
     c_bands:  1 eigenvalues not converged
     c_bands:  1 eigenvalues not converged
     c_bands:  3 eigenvalues not converged
     c_bands:  1 eigenvalues not converged
     c_bands:  2 eigenvalues not converged
     c_bands:  1 eigenvalues not converged
     c_bands:  2 eigenvalues not converged
     c_bands:  4 eigenvalues not converged
     c_bands:  2 eigenvalues not converged
     c_bands:  3 eigenvalues not converged
     ethr =  8.55E-07,  avg # of iterations = 17.1

     total cpu time spent up to now is      393.6 secs

     total energy              =    -517.49176437 Ry
     estimated scf accuracy    <       0.00383159 Ry

     total magnetization       =     1.35 Bohr mag/cell
     absolute magnetization    =     1.38 Bohr mag/cell

     iteration # 15     ecut=   120.00 Ry     beta= 0.50
     Davidson diagonalization with overlap

---- Real-time Memory Report at c_bands before calling an iterative solver
           137 MiB given to the printing process from OS
             0 MiB allocation reported by mallinfo(arena+hblkhd)
         32459 MiB available memory on the node where the printing process lives
------------------
     c_bands:  1 eigenvalues not converged
     c_bands:  2 eigenvalues not converged
     c_bands:  4 eigenvalues not converged
     c_bands:  3 eigenvalues not converged
     c_bands:  2 eigenvalues not converged
     c_bands:  4 eigenvalues not converged
     c_bands:  4 eigenvalues not converged
     c_bands:  1 eigenvalues not converged
     c_bands:  1 eigenvalues not converged
     c_bands:  1 eigenvalues not converged
     c_bands:  5 eigenvalues not converged
     c_bands:  3 eigenvalues not converged
     c_bands:  4 eigenvalues not converged
     c_bands:  1 eigenvalues not converged
     c_bands:  2 eigenvalues not converged
     c_bands:  4 eigenvalues not converged
     c_bands:  1 eigenvalues not converged
     c_bands:  1 eigenvalues not converged
     c_bands:  2 eigenvalues not converged
     c_bands:  1 eigenvalues not converged
     c_bands:  4 eigenvalues not converged
     c_bands:  2 eigenvalues not converged
     c_bands:  2 eigenvalues not converged
     c_bands:  1 eigenvalues not converged
     c_bands:  2 eigenvalues not converged
     c_bands:  2 eigenvalues not converged
     c_bands:  3 eigenvalues not converged
     c_bands:  3 eigenvalues not converged
     c_bands:  1 eigenvalues not converged
     c_bands:  2 eigenvalues not converged
     c_bands:  2 eigenvalues not converged
     c_bands:  1 eigenvalues not converged
     c_bands:  2 eigenvalues not converged
     c_bands:  1 eigenvalues not converged
     c_bands:  1 eigenvalues not converged
     c_bands:  1 eigenvalues not converged
     c_bands:  2 eigenvalues not converged
     c_bands:  4 eigenvalues not converged
     c_bands:  1 eigenvalues not converged
     c_bands:  3 eigenvalues not converged
     c_bands:  2 eigenvalues not converged
     c_bands:  1 eigenvalues not converged
     c_bands:  1 eigenvalues not converged
     c_bands:  1 eigenvalues not converged
     c_bands:  4 eigenvalues not converged
     ethr =  8.55E-07,  avg # of iterations = 17.4

     total cpu time spent up to now is      433.6 secs

     total energy              =    -517.49234686 Ry
     estimated scf accuracy    <       0.00480933 Ry

     total magnetization       =     1.36 Bohr mag/cell
     absolute magnetization    =     1.39 Bohr mag/cell

     iteration # 16     ecut=   120.00 Ry     beta= 0.50
     Davidson diagonalization with overlap

---- Real-time Memory Report at c_bands before calling an iterative solver
           137 MiB given to the printing process from OS
             0 MiB allocation reported by mallinfo(arena+hblkhd)
         32462 MiB available memory on the node where the printing process lives
------------------
     c_bands:  3 eigenvalues not converged
     c_bands:  2 eigenvalues not converged
     c_bands:  3 eigenvalues not converged
     c_bands:  1 eigenvalues not converged
     c_bands:  1 eigenvalues not converged
     c_bands:  1 eigenvalues not converged
     c_bands:  4 eigenvalues not converged
     c_bands:  3 eigenvalues not converged
     c_bands:  1 eigenvalues not converged
     c_bands:  2 eigenvalues not converged
     c_bands:  2 eigenvalues not converged
     c_bands:  4 eigenvalues not converged
     c_bands:  2 eigenvalues not converged
     c_bands:  2 eigenvalues not converged
     c_bands:  2 eigenvalues not converged
     c_bands:  2 eigenvalues not converged
     ethr =  8.55E-07,  avg # of iterations =  7.5

     total cpu time spent up to now is      452.9 secs

     total energy              =    -517.49215055 Ry
     estimated scf accuracy    <       0.00434212 Ry

     total magnetization       =     1.33 Bohr mag/cell
     absolute magnetization    =     1.35 Bohr mag/cell

     iteration # 17     ecut=   120.00 Ry     beta= 0.50
     Davidson diagonalization with overlap

---- Real-time Memory Report at c_bands before calling an iterative solver
           137 MiB given to the printing process from OS
             0 MiB allocation reported by mallinfo(arena+hblkhd)
         32447 MiB available memory on the node where the printing process lives
------------------
     c_bands:  2 eigenvalues not converged
     c_bands:  2 eigenvalues not converged
     c_bands:  1 eigenvalues not converged
     c_bands:  2 eigenvalues not converged
     c_bands:  3 eigenvalues not converged
     c_bands:  2 eigenvalues not converged
     c_bands:  2 eigenvalues not converged
     c_bands:  4 eigenvalues not converged
     c_bands:  3 eigenvalues not converged
     c_bands:  3 eigenvalues not converged
     c_bands:  1 eigenvalues not converged
     c_bands:  2 eigenvalues not converged
     c_bands:  3 eigenvalues not converged
     c_bands:  1 eigenvalues not converged
     c_bands:  1 eigenvalues not converged
     c_bands:  2 eigenvalues not converged
     c_bands:  1 eigenvalues not converged
     c_bands:  1 eigenvalues not converged
     c_bands:  2 eigenvalues not converged
     c_bands:  2 eigenvalues not converged
     c_bands:  2 eigenvalues not converged
     ethr =  8.55E-07,  avg # of iterations = 15.2

     total cpu time spent up to now is      485.1 secs

     total energy              =    -517.49234036 Ry
     estimated scf accuracy    <       0.00199441 Ry

     total magnetization       =     1.24 Bohr mag/cell
     absolute magnetization    =     1.26 Bohr mag/cell

     iteration # 18     ecut=   120.00 Ry     beta= 0.50
     Davidson diagonalization with overlap

---- Real-time Memory Report at c_bands before calling an iterative solver
           138 MiB given to the printing process from OS
             0 MiB allocation reported by mallinfo(arena+hblkhd)
         32438 MiB available memory on the node where the printing process lives
------------------
     c_bands:  1 eigenvalues not converged
     c_bands:  1 eigenvalues not converged
     c_bands:  2 eigenvalues not converged
     c_bands:  1 eigenvalues not converged
     c_bands:  2 eigenvalues not converged
     c_bands:  3 eigenvalues not converged
     c_bands:  1 eigenvalues not converged
     c_bands:  3 eigenvalues not converged
     c_bands:  1 eigenvalues not converged
     c_bands:  1 eigenvalues not converged
     c_bands:  3 eigenvalues not converged
     c_bands:  2 eigenvalues not converged
     c_bands:  1 eigenvalues not converged
     ethr =  8.55E-07,  avg # of iterations =  7.0

     total cpu time spent up to now is      503.6 secs

     total energy              =    -517.49236033 Ry
     estimated scf accuracy    <       0.00057496 Ry

     total magnetization       =     1.23 Bohr mag/cell
     absolute magnetization    =     1.26 Bohr mag/cell

     iteration # 19     ecut=   120.00 Ry     beta= 0.50
     Davidson diagonalization with overlap

---- Real-time Memory Report at c_bands before calling an iterative solver
           138 MiB given to the printing process from OS
             0 MiB allocation reported by mallinfo(arena+hblkhd)
         32435 MiB available memory on the node where the printing process lives
------------------
     c_bands:  2 eigenvalues not converged
     c_bands:  1 eigenvalues not converged
     c_bands:  4 eigenvalues not converged
     c_bands:  3 eigenvalues not converged
     c_bands:  3 eigenvalues not converged
     c_bands:  2 eigenvalues not converged
     c_bands:  1 eigenvalues not converged
     c_bands:  3 eigenvalues not converged
     c_bands:  2 eigenvalues not converged
     c_bands:  2 eigenvalues not converged
     c_bands:  3 eigenvalues not converged
     ethr =  8.55E-07,  avg # of iterations = 11.3

     total cpu time spent up to now is      527.8 secs

     total energy              =    -517.49245815 Ry
     estimated scf accuracy    <       0.00061173 Ry

     total magnetization       =     1.21 Bohr mag/cell
     absolute magnetization    =     1.24 Bohr mag/cell

     iteration # 20     ecut=   120.00 Ry     beta= 0.50
     Davidson diagonalization with overlap

---- Real-time Memory Report at c_bands before calling an iterative solver
           138 MiB given to the printing process from OS
             0 MiB allocation reported by mallinfo(arena+hblkhd)
         32443 MiB available memory on the node where the printing process lives
------------------
     c_bands:  1 eigenvalues not converged
     c_bands:  3 eigenvalues not converged
     c_bands:  3 eigenvalues not converged
     c_bands:  2 eigenvalues not converged
     c_bands:  1 eigenvalues not converged
     c_bands:  2 eigenvalues not converged
     c_bands:  2 eigenvalues not converged
     c_bands:  3 eigenvalues not converged
     ethr =  8.55E-07,  avg # of iterations =  2.9

     total cpu time spent up to now is      543.8 secs

     total energy              =    -517.49238965 Ry
     estimated scf accuracy    <       0.00052791 Ry

     total magnetization       =     1.17 Bohr mag/cell
     absolute magnetization    =     1.20 Bohr mag/cell

     iteration # 21     ecut=   120.00 Ry     beta= 0.50
     Davidson diagonalization with overlap

---- Real-time Memory Report at c_bands before calling an iterative solver
           138 MiB given to the printing process from OS
             0 MiB allocation reported by mallinfo(arena+hblkhd)
         32430 MiB available memory on the node where the printing process lives
------------------
     c_bands:  1 eigenvalues not converged
     c_bands:  2 eigenvalues not converged
     c_bands:  1 eigenvalues not converged
     c_bands:  4 eigenvalues not converged
     c_bands:  4 eigenvalues not converged
     c_bands:  2 eigenvalues not converged
     c_bands:  1 eigenvalues not converged
     c_bands:  2 eigenvalues not converged
     ethr =  8.55E-07,  avg # of iterations =  6.8

     total cpu time spent up to now is      562.8 secs

     total energy              =    -517.49248431 Ry
     estimated scf accuracy    <       0.00004916 Ry

     total magnetization       =     1.05 Bohr mag/cell
     absolute magnetization    =     1.08 Bohr mag/cell

     iteration # 22     ecut=   120.00 Ry     beta= 0.50
     Davidson diagonalization with overlap

---- Real-time Memory Report at c_bands before calling an iterative solver
           138 MiB given to the printing process from OS
             0 MiB allocation reported by mallinfo(arena+hblkhd)
         32434 MiB available memory on the node where the printing process lives
------------------
     c_bands:  2 eigenvalues not converged
     c_bands:  1 eigenvalues not converged
     c_bands:  2 eigenvalues not converged
     c_bands:  2 eigenvalues not converged
     c_bands:  3 eigenvalues not converged
     c_bands:  1 eigenvalues not converged
     c_bands:  2 eigenvalues not converged
     c_bands:  1 eigenvalues not converged
     c_bands:  2 eigenvalues not converged
     c_bands:  1 eigenvalues not converged
     c_bands:  1 eigenvalues not converged
     c_bands:  2 eigenvalues not converged
     c_bands:  4 eigenvalues not converged
     c_bands:  2 eigenvalues not converged
     c_bands:  2 eigenvalues not converged
     c_bands:  2 eigenvalues not converged
     c_bands:  4 eigenvalues not converged
     c_bands:  2 eigenvalues not converged
     c_bands:  1 eigenvalues not converged
     c_bands:  2 eigenvalues not converged
     c_bands:  2 eigenvalues not converged
     c_bands:  1 eigenvalues not converged
     c_bands:  4 eigenvalues not converged
     c_bands:  1 eigenvalues not converged
     c_bands:  2 eigenvalues not converged
     c_bands:  2 eigenvalues not converged
     c_bands:  4 eigenvalues not converged
     c_bands:  3 eigenvalues not converged
     c_bands:  1 eigenvalues not converged
     c_bands:  1 eigenvalues not converged
     c_bands:  2 eigenvalues not converged
     c_bands:  4 eigenvalues not converged
     c_bands:  2 eigenvalues not converged
     c_bands:  2 eigenvalues not converged
     c_bands:  2 eigenvalues not converged
     c_bands:  2 eigenvalues not converged
     c_bands:  2 eigenvalues not converged
     c_bands:  3 eigenvalues not converged
     c_bands:  1 eigenvalues not converged
     c_bands:  1 eigenvalues not converged
     ethr =  8.78E-08,  avg # of iterations = 17.1

     total cpu time spent up to now is      599.9 secs

     total energy              =    -517.49254420 Ry
     estimated scf accuracy    <       0.00056252 Ry

     total magnetization       =     1.05 Bohr mag/cell
     absolute magnetization    =     1.07 Bohr mag/cell

     iteration # 23     ecut=   120.00 Ry     beta= 0.50
     Davidson diagonalization with overlap

---- Real-time Memory Report at c_bands before calling an iterative solver
           138 MiB given to the printing process from OS
             0 MiB allocation reported by mallinfo(arena+hblkhd)
         32427 MiB available memory on the node where the printing process lives
------------------
     c_bands:  2 eigenvalues not converged
     c_bands:  2 eigenvalues not converged
     c_bands:  2 eigenvalues not converged
     c_bands:  1 eigenvalues not converged
     c_bands:  1 eigenvalues not converged
     c_bands:  4 eigenvalues not converged
     c_bands:  1 eigenvalues not converged
     c_bands:  2 eigenvalues not converged
     c_bands:  3 eigenvalues not converged
     c_bands:  2 eigenvalues not converged
     c_bands:  4 eigenvalues not converged
     c_bands:  2 eigenvalues not converged
     c_bands:  2 eigenvalues not converged
     c_bands:  4 eigenvalues not converged
     c_bands:  2 eigenvalues not converged
     c_bands:  2 eigenvalues not converged
     c_bands:  2 eigenvalues not converged
     c_bands:  1 eigenvalues not converged
     c_bands:  4 eigenvalues not converged
     c_bands:  2 eigenvalues not converged
     c_bands:  2 eigenvalues not converged
     c_bands:  1 eigenvalues not converged
     c_bands:  2 eigenvalues not converged
     c_bands:  4 eigenvalues not converged
     c_bands:  1 eigenvalues not converged
     c_bands:  2 eigenvalues not converged
     c_bands:  2 eigenvalues not converged
     c_bands:  3 eigenvalues not converged
     ethr =  8.78E-08,  avg # of iterations = 10.8

     total cpu time spent up to now is      622.1 secs

     total energy              =    -517.49254084 Ry
     estimated scf accuracy    <       0.00084483 Ry

     total magnetization       =     1.07 Bohr mag/cell
     absolute magnetization    =     1.09 Bohr mag/cell

     iteration # 24     ecut=   120.00 Ry     beta= 0.50
     Davidson diagonalization with overlap

---- Real-time Memory Report at c_bands before calling an iterative solver
           138 MiB given to the printing process from OS
             0 MiB allocation reported by mallinfo(arena+hblkhd)
         32429 MiB available memory on the node where the printing process lives
------------------
     c_bands:  1 eigenvalues not converged
     c_bands:  2 eigenvalues not converged
     c_bands:  1 eigenvalues not converged
     c_bands:  1 eigenvalues not converged
     c_bands:  2 eigenvalues not converged
     c_bands:  2 eigenvalues not converged
     c_bands:  3 eigenvalues not converged
     c_bands:  2 eigenvalues not converged
     c_bands:  2 eigenvalues not converged
     c_bands:  2 eigenvalues not converged
     c_bands:  1 eigenvalues not converged
     c_bands:  1 eigenvalues not converged
     c_bands:  4 eigenvalues not converged
     c_bands:  3 eigenvalues not converged
     c_bands:  1 eigenvalues not converged
     c_bands:  3 eigenvalues not converged
     c_bands:  2 eigenvalues not converged
     c_bands:  1 eigenvalues not converged
     c_bands:  3 eigenvalues not converged
     ethr =  8.78E-08,  avg # of iterations =  6.0

     total cpu time spent up to now is      640.1 secs

     total energy              =    -517.49253610 Ry
     estimated scf accuracy    <       0.00079986 Ry

     total magnetization       =     1.09 Bohr mag/cell
     absolute magnetization    =     1.12 Bohr mag/cell

     iteration # 25     ecut=   120.00 Ry     beta= 0.50
     Davidson diagonalization with overlap

---- Real-time Memory Report at c_bands before calling an iterative solver
           138 MiB given to the printing process from OS
             0 MiB allocation reported by mallinfo(arena+hblkhd)
         32425 MiB available memory on the node where the printing process lives
------------------
     c_bands:  2 eigenvalues not converged
     c_bands:  2 eigenvalues not converged
     c_bands:  1 eigenvalues not converged
     c_bands:  4 eigenvalues not converged
     c_bands:  2 eigenvalues not converged
     c_bands:  3 eigenvalues not converged
     c_bands:  4 eigenvalues not converged
     c_bands:  2 eigenvalues not converged
     c_bands:  3 eigenvalues not converged
     c_bands:  2 eigenvalues not converged
     c_bands:  1 eigenvalues not converged
     c_bands:  4 eigenvalues not converged
     c_bands:  4 eigenvalues not converged
     c_bands:  2 eigenvalues not converged
     c_bands:  3 eigenvalues not converged
     c_bands:  1 eigenvalues not converged
     c_bands:  3 eigenvalues not converged
     ethr =  8.78E-08,  avg # of iterations = 12.1

     total cpu time spent up to now is      664.3 secs

     total energy              =    -517.49256088 Ry
     estimated scf accuracy    <       0.00050342 Ry

     total magnetization       =     1.06 Bohr mag/cell
     absolute magnetization    =     1.09 Bohr mag/cell

     iteration # 26     ecut=   120.00 Ry     beta= 0.50
     Davidson diagonalization with overlap

---- Real-time Memory Report at c_bands before calling an iterative solver
           138 MiB given to the printing process from OS
             0 MiB allocation reported by mallinfo(arena+hblkhd)
         32441 MiB available memory on the node where the printing process lives
------------------
     c_bands:  2 eigenvalues not converged
     c_bands:  2 eigenvalues not converged
     c_bands:  2 eigenvalues not converged
     c_bands:  1 eigenvalues not converged
     c_bands:  3 eigenvalues not converged
     c_bands:  2 eigenvalues not converged
     c_bands:  2 eigenvalues not converged
     c_bands:  2 eigenvalues not converged
     c_bands:  3 eigenvalues not converged
     c_bands:  5 eigenvalues not converged
     c_bands:  1 eigenvalues not converged
     c_bands:  1 eigenvalues not converged
     c_bands:  2 eigenvalues not converged
     ethr =  8.78E-08,  avg # of iterations =  5.5

     total cpu time spent up to now is      681.8 secs

     total energy              =    -517.49255421 Ry
     estimated scf accuracy    <       0.00049208 Ry

     total magnetization       =     1.04 Bohr mag/cell
     absolute magnetization    =     1.07 Bohr mag/cell

     iteration # 27     ecut=   120.00 Ry     beta= 0.50
     Davidson diagonalization with overlap

---- Real-time Memory Report at c_bands before calling an iterative solver
           138 MiB given to the printing process from OS
             0 MiB allocation reported by mallinfo(arena+hblkhd)
         32425 MiB available memory on the node where the printing process lives
------------------
     c_bands:  2 eigenvalues not converged
     c_bands:  2 eigenvalues not converged
     c_bands:  2 eigenvalues not converged
     c_bands:  2 eigenvalues not converged
     c_bands:  3 eigenvalues not converged
     c_bands:  2 eigenvalues not converged
     c_bands:  2 eigenvalues not converged
     c_bands:  1 eigenvalues not converged
     c_bands:  3 eigenvalues not converged
     c_bands:  1 eigenvalues not converged
     c_bands:  4 eigenvalues not converged
     c_bands:  1 eigenvalues not converged
     c_bands:  2 eigenvalues not converged
     c_bands:  1 eigenvalues not converged
     c_bands:  4 eigenvalues not converged
     c_bands:  2 eigenvalues not converged
     c_bands:  2 eigenvalues not converged
     c_bands:  5 eigenvalues not converged
     c_bands:  1 eigenvalues not converged
     c_bands:  2 eigenvalues not converged
     c_bands:  2 eigenvalues not converged
     ethr =  8.78E-08,  avg # of iterations = 11.2

     total cpu time spent up to now is      707.8 secs

     total energy              =    -517.49255846 Ry
     estimated scf accuracy    <       0.00021912 Ry

     total magnetization       =     1.00 Bohr mag/cell
     absolute magnetization    =     1.02 Bohr mag/cell

     iteration # 28     ecut=   120.00 Ry     beta= 0.50
     Davidson diagonalization with overlap

---- Real-time Memory Report at c_bands before calling an iterative solver
           138 MiB given to the printing process from OS
             0 MiB allocation reported by mallinfo(arena+hblkhd)
         32421 MiB available memory on the node where the printing process lives
------------------
     c_bands:  2 eigenvalues not converged
     c_bands:  2 eigenvalues not converged
     c_bands:  1 eigenvalues not converged
     c_bands:  3 eigenvalues not converged
     c_bands:  2 eigenvalues not converged
     c_bands:  2 eigenvalues not converged
     c_bands:  2 eigenvalues not converged
     c_bands:  2 eigenvalues not converged
     c_bands:  2 eigenvalues not converged
     c_bands:  2 eigenvalues not converged
     c_bands:  1 eigenvalues not converged
     c_bands:  2 eigenvalues not converged
     c_bands:  1 eigenvalues not converged
     c_bands:  2 eigenvalues not converged
     c_bands:  2 eigenvalues not converged
     ethr =  8.78E-08,  avg # of iterations =  5.4

     total cpu time spent up to now is      725.6 secs

     total energy              =    -517.49257128 Ry
     estimated scf accuracy    <       0.00022475 Ry

     total magnetization       =     1.04 Bohr mag/cell
     absolute magnetization    =     1.07 Bohr mag/cell

     iteration # 29     ecut=   120.00 Ry     beta= 0.50
     Davidson diagonalization with overlap

---- Real-time Memory Report at c_bands before calling an iterative solver
           138 MiB given to the printing process from OS
             0 MiB allocation reported by mallinfo(arena+hblkhd)
         32427 MiB available memory on the node where the printing process lives
------------------
     c_bands:  1 eigenvalues not converged
     c_bands:  2 eigenvalues not converged
     c_bands:  1 eigenvalues not converged
     c_bands:  3 eigenvalues not converged
     c_bands:  2 eigenvalues not converged
     c_bands:  2 eigenvalues not converged
     c_bands:  1 eigenvalues not converged
     c_bands:  3 eigenvalues not converged
     c_bands:  2 eigenvalues not converged
     c_bands:  2 eigenvalues not converged
     c_bands:  1 eigenvalues not converged
     c_bands:  1 eigenvalues not converged
     c_bands:  2 eigenvalues not converged
     ethr =  8.78E-08,  avg # of iterations =  4.3

     total cpu time spent up to now is      742.5 secs

     total energy              =    -517.49257883 Ry
     estimated scf accuracy    <       0.00018426 Ry

     total magnetization       =     1.02 Bohr mag/cell
     absolute magnetization    =     1.04 Bohr mag/cell

     iteration # 30     ecut=   120.00 Ry     beta= 0.50
     Davidson diagonalization with overlap

---- Real-time Memory Report at c_bands before calling an iterative solver
           139 MiB given to the printing process from OS
             0 MiB allocation reported by mallinfo(arena+hblkhd)
         32436 MiB available memory on the node where the printing process lives
------------------
     c_bands:  1 eigenvalues not converged
     c_bands:  2 eigenvalues not converged
     c_bands:  2 eigenvalues not converged
     c_bands:  3 eigenvalues not converged
     c_bands:  2 eigenvalues not converged
     c_bands:  2 eigenvalues not converged
     c_bands:  3 eigenvalues not converged
     c_bands:  1 eigenvalues not converged
     c_bands:  2 eigenvalues not converged
     c_bands:  1 eigenvalues not converged
     c_bands:  1 eigenvalues not converged
     c_bands:  2 eigenvalues not converged
     ethr =  8.78E-08,  avg # of iterations =  4.0

     total cpu time spent up to now is      758.8 secs

     total energy              =    -517.49252024 Ry
     estimated scf accuracy    <       0.00015171 Ry

     total magnetization       =     0.99 Bohr mag/cell
     absolute magnetization    =     1.01 Bohr mag/cell

     iteration # 31     ecut=   120.00 Ry     beta= 0.50
     Davidson diagonalization with overlap

---- Real-time Memory Report at c_bands before calling an iterative solver
           139 MiB given to the printing process from OS
             0 MiB allocation reported by mallinfo(arena+hblkhd)
         32436 MiB available memory on the node where the printing process lives
------------------
     c_bands:  2 eigenvalues not converged
     c_bands:  2 eigenvalues not converged
     c_bands:  1 eigenvalues not converged
     c_bands:  1 eigenvalues not converged
     c_bands:  2 eigenvalues not converged
     c_bands:  1 eigenvalues not converged
     c_bands:  4 eigenvalues not converged
     c_bands:  2 eigenvalues not converged
     c_bands:  2 eigenvalues not converged
     c_bands:  2 eigenvalues not converged
     c_bands:  5 eigenvalues not converged
     c_bands:  1 eigenvalues not converged
     c_bands:  2 eigenvalues not converged
     c_bands:  3 eigenvalues not converged
     c_bands:  1 eigenvalues not converged
     c_bands:  1 eigenvalues not converged
     c_bands:  2 eigenvalues not converged
     c_bands:  3 eigenvalues not converged
     c_bands:  2 eigenvalues not converged
     c_bands:  2 eigenvalues not converged
     c_bands:  1 eigenvalues not converged
     c_bands:  2 eigenvalues not converged
     c_bands:  2 eigenvalues not converged
     c_bands:  2 eigenvalues not converged
     c_bands:  1 eigenvalues not converged
     c_bands:  3 eigenvalues not converged
     c_bands:  1 eigenvalues not converged
     c_bands:  3 eigenvalues not converged
     c_bands:  4 eigenvalues not converged
     c_bands:  1 eigenvalues not converged
     c_bands:  2 eigenvalues not converged
     c_bands:  1 eigenvalues not converged
     c_bands:  1 eigenvalues not converged
     c_bands:  3 eigenvalues not converged
     c_bands:  2 eigenvalues not converged
     c_bands:  1 eigenvalues not converged
     c_bands:  2 eigenvalues not converged
     c_bands:  2 eigenvalues not converged
     c_bands:  1 eigenvalues not converged
     c_bands:  1 eigenvalues not converged
     ethr =  8.78E-08,  avg # of iterations = 16.4

     total cpu time spent up to now is      794.2 secs

     total energy              =    -517.49263004 Ry
     estimated scf accuracy    <       0.00004305 Ry

     total magnetization       =     0.85 Bohr mag/cell
     absolute magnetization    =     0.87 Bohr mag/cell

     iteration # 32     ecut=   120.00 Ry     beta= 0.50
     Davidson diagonalization with overlap

---- Real-time Memory Report at c_bands before calling an iterative solver
           139 MiB given to the printing process from OS
             0 MiB allocation reported by mallinfo(arena+hblkhd)
         32439 MiB available memory on the node where the printing process lives
------------------
     c_bands:  2 eigenvalues not converged
     c_bands:  2 eigenvalues not converged
     c_bands:  2 eigenvalues not converged
     c_bands:  4 eigenvalues not converged
     c_bands:  2 eigenvalues not converged
     c_bands:  1 eigenvalues not converged
     c_bands:  1 eigenvalues not converged
     c_bands:  3 eigenvalues not converged
     c_bands:  1 eigenvalues not converged
     c_bands:  1 eigenvalues not converged
     c_bands:  2 eigenvalues not converged
     c_bands:  3 eigenvalues not converged
     c_bands:  4 eigenvalues not converged
     c_bands:  1 eigenvalues not converged
     c_bands:  2 eigenvalues not converged
     c_bands:  2 eigenvalues not converged
     c_bands:  2 eigenvalues not converged
     ethr =  7.69E-08,  avg # of iterations = 10.2

     total cpu time spent up to now is      815.9 secs

     total energy              =    -517.49264836 Ry
     estimated scf accuracy    <       0.00005127 Ry

     total magnetization       =     0.81 Bohr mag/cell
     absolute magnetization    =     0.83 Bohr mag/cell

     iteration # 33     ecut=   120.00 Ry     beta= 0.50
     Davidson diagonalization with overlap

---- Real-time Memory Report at c_bands before calling an iterative solver
           139 MiB given to the printing process from OS
             0 MiB allocation reported by mallinfo(arena+hblkhd)
         32416 MiB available memory on the node where the printing process lives
------------------
     c_bands:  1 eigenvalues not converged
     c_bands:  2 eigenvalues not converged
     c_bands:  2 eigenvalues not converged
     c_bands:  3 eigenvalues not converged
     c_bands:  2 eigenvalues not converged
     c_bands:  1 eigenvalues not converged
     c_bands:  3 eigenvalues not converged
     c_bands:  1 eigenvalues not converged
     c_bands:  4 eigenvalues not converged
     c_bands:  1 eigenvalues not converged
     c_bands:  2 eigenvalues not converged
     c_bands:  1 eigenvalues not converged
     c_bands:  1 eigenvalues not converged
     c_bands:  4 eigenvalues not converged
     c_bands:  1 eigenvalues not converged
     c_bands:  2 eigenvalues not converged
     c_bands:  2 eigenvalues not converged
     ethr =  7.69E-08,  avg # of iterations = 11.3

     total cpu time spent up to now is      839.1 secs

     total energy              =    -517.49266306 Ry
     estimated scf accuracy    <       0.00010685 Ry

     total magnetization       =     0.78 Bohr mag/cell
     absolute magnetization    =     0.80 Bohr mag/cell

     iteration # 34     ecut=   120.00 Ry     beta= 0.50
     Davidson diagonalization with overlap

---- Real-time Memory Report at c_bands before calling an iterative solver
           139 MiB given to the printing process from OS
             0 MiB allocation reported by mallinfo(arena+hblkhd)
         32425 MiB available memory on the node where the printing process lives
------------------
     c_bands:  1 eigenvalues not converged
     c_bands:  2 eigenvalues not converged
     c_bands:  2 eigenvalues not converged
     c_bands:  2 eigenvalues not converged
     c_bands:  2 eigenvalues not converged
     c_bands:  2 eigenvalues not converged
     c_bands:  2 eigenvalues not converged
     c_bands:  1 eigenvalues not converged
     c_bands:  2 eigenvalues not converged
     c_bands:  2 eigenvalues not converged
     c_bands:  1 eigenvalues not converged
     c_bands:  1 eigenvalues not converged
     c_bands:  1 eigenvalues not converged
     ethr =  7.69E-08,  avg # of iterations =  4.2

     total cpu time spent up to now is      855.5 secs

     total energy              =    -517.49265768 Ry
     estimated scf accuracy    <       0.00012327 Ry

     total magnetization       =     0.77 Bohr mag/cell
     absolute magnetization    =     0.79 Bohr mag/cell

     iteration # 35     ecut=   120.00 Ry     beta= 0.50
     Davidson diagonalization with overlap

---- Real-time Memory Report at c_bands before calling an iterative solver
           139 MiB given to the printing process from OS
             0 MiB allocation reported by mallinfo(arena+hblkhd)
         32428 MiB available memory on the node where the printing process lives
------------------
     c_bands:  2 eigenvalues not converged
     c_bands:  1 eigenvalues not converged
     c_bands:  3 eigenvalues not converged
     c_bands:  2 eigenvalues not converged
     c_bands:  2 eigenvalues not converged
     c_bands:  1 eigenvalues not converged
     c_bands:  1 eigenvalues not converged
     c_bands:  1 eigenvalues not converged
     ethr =  7.69E-08,  avg # of iterations =  3.8

     total cpu time spent up to now is      871.6 secs

     total energy              =    -517.49264791 Ry
     estimated scf accuracy    <       0.00011688 Ry

     total magnetization       =     0.79 Bohr mag/cell
     absolute magnetization    =     0.81 Bohr mag/cell

     iteration # 36     ecut=   120.00 Ry     beta= 0.50
     Davidson diagonalization with overlap

---- Real-time Memory Report at c_bands before calling an iterative solver
           139 MiB given to the printing process from OS
             0 MiB allocation reported by mallinfo(arena+hblkhd)
         32424 MiB available memory on the node where the printing process lives
------------------
     c_bands:  1 eigenvalues not converged
     c_bands:  1 eigenvalues not converged
     c_bands:  2 eigenvalues not converged
     c_bands:  1 eigenvalues not converged
     c_bands:  1 eigenvalues not converged
     ethr =  7.69E-08,  avg # of iterations =  2.3

     total cpu time spent up to now is      886.9 secs

     total energy              =    -517.49265179 Ry
     estimated scf accuracy    <       0.00011278 Ry

     total magnetization       =     0.82 Bohr mag/cell
     absolute magnetization    =     0.84 Bohr mag/cell

     iteration # 37     ecut=   120.00 Ry     beta= 0.50
     Davidson diagonalization with overlap

---- Real-time Memory Report at c_bands before calling an iterative solver
           139 MiB given to the printing process from OS
             0 MiB allocation reported by mallinfo(arena+hblkhd)
         32420 MiB available memory on the node where the printing process lives
------------------
     c_bands:  3 eigenvalues not converged
     c_bands:  3 eigenvalues not converged
     c_bands:  1 eigenvalues not converged
     c_bands:  1 eigenvalues not converged
     ethr =  7.69E-08,  avg # of iterations =  2.4

     total cpu time spent up to now is      902.2 secs

     total energy              =    -517.49264522 Ry
     estimated scf accuracy    <       0.00006711 Ry

     total magnetization       =     0.80 Bohr mag/cell
     absolute magnetization    =     0.82 Bohr mag/cell

     iteration # 38     ecut=   120.00 Ry     beta= 0.50
     Davidson diagonalization with overlap

---- Real-time Memory Report at c_bands before calling an iterative solver
           139 MiB given to the printing process from OS
             0 MiB allocation reported by mallinfo(arena+hblkhd)
         32424 MiB available memory on the node where the printing process lives
------------------
     c_bands:  2 eigenvalues not converged
     c_bands:  3 eigenvalues not converged
     c_bands:  1 eigenvalues not converged
     ethr =  7.69E-08,  avg # of iterations =  3.4

     total cpu time spent up to now is      918.4 secs

     total energy              =    -517.49263254 Ry
     estimated scf accuracy    <       0.00006564 Ry

     total magnetization       =     0.82 Bohr mag/cell
     absolute magnetization    =     0.84 Bohr mag/cell

     iteration # 39     ecut=   120.00 Ry     beta= 0.50
     Davidson diagonalization with overlap

---- Real-time Memory Report at c_bands before calling an iterative solver
           139 MiB given to the printing process from OS
             0 MiB allocation reported by mallinfo(arena+hblkhd)
         32412 MiB available memory on the node where the printing process lives
------------------
     c_bands:  2 eigenvalues not converged
     c_bands:  2 eigenvalues not converged
     c_bands:  1 eigenvalues not converged
     c_bands:  1 eigenvalues not converged
     c_bands:  1 eigenvalues not converged
     c_bands:  2 eigenvalues not converged
     c_bands:  2 eigenvalues not converged
     c_bands:  2 eigenvalues not converged
     ethr =  7.69E-08,  avg # of iterations =  8.7

     total cpu time spent up to now is      940.8 secs

     total energy              =    -517.49267698 Ry
     estimated scf accuracy    <       0.00001504 Ry

     total magnetization       =     0.72 Bohr mag/cell
     absolute magnetization    =     0.74 Bohr mag/cell

     iteration # 40     ecut=   120.00 Ry     beta= 0.50
     Davidson diagonalization with overlap

---- Real-time Memory Report at c_bands before calling an iterative solver
           139 MiB given to the printing process from OS
             0 MiB allocation reported by mallinfo(arena+hblkhd)
         32390 MiB available memory on the node where the printing process lives
------------------
     c_bands:  2 eigenvalues not converged
     c_bands:  1 eigenvalues not converged
     c_bands:  2 eigenvalues not converged
     c_bands:  2 eigenvalues not converged
     c_bands:  2 eigenvalues not converged
     c_bands:  3 eigenvalues not converged
     c_bands:  2 eigenvalues not converged
     c_bands:  2 eigenvalues not converged
     c_bands:  1 eigenvalues not converged
     c_bands:  1 eigenvalues not converged
     c_bands:  2 eigenvalues not converged
     c_bands:  1 eigenvalues not converged
     c_bands:  1 eigenvalues not converged
     c_bands:  3 eigenvalues not converged
     c_bands:  3 eigenvalues not converged
     c_bands:  2 eigenvalues not converged
     c_bands:  1 eigenvalues not converged
     c_bands:  1 eigenvalues not converged
     c_bands:  2 eigenvalues not converged
     c_bands:  1 eigenvalues not converged
     c_bands:  2 eigenvalues not converged
     c_bands:  2 eigenvalues not converged
     c_bands:  2 eigenvalues not converged
     c_bands:  1 eigenvalues not converged
     c_bands:  1 eigenvalues not converged
     c_bands:  1 eigenvalues not converged
     c_bands:  4 eigenvalues not converged
     c_bands:  2 eigenvalues not converged
     c_bands:  2 eigenvalues not converged
     c_bands:  1 eigenvalues not converged
     c_bands:  1 eigenvalues not converged
     c_bands:  3 eigenvalues not converged
     c_bands:  1 eigenvalues not converged
     c_bands:  2 eigenvalues not converged
     c_bands:  1 eigenvalues not converged
     c_bands:  3 eigenvalues not converged
     c_bands:  1 eigenvalues not converged
     c_bands:  1 eigenvalues not converged
     ethr =  2.69E-08,  avg # of iterations = 17.3

     total cpu time spent up to now is      976.7 secs

     total energy              =    -517.49269821 Ry
     estimated scf accuracy    <       0.00006323 Ry

     total magnetization       =     0.66 Bohr mag/cell
     absolute magnetization    =     0.68 Bohr mag/cell

     iteration # 41     ecut=   120.00 Ry     beta= 0.50
     Davidson diagonalization with overlap

---- Real-time Memory Report at c_bands before calling an iterative solver
           140 MiB given to the printing process from OS
             0 MiB allocation reported by mallinfo(arena+hblkhd)
         32400 MiB available memory on the node where the printing process lives
------------------
     c_bands:  2 eigenvalues not converged
     c_bands:  2 eigenvalues not converged
     c_bands:  2 eigenvalues not converged
     c_bands:  2 eigenvalues not converged
     c_bands:  2 eigenvalues not converged
     c_bands:  3 eigenvalues not converged
     c_bands:  2 eigenvalues not converged
     c_bands:  2 eigenvalues not converged
     c_bands:  3 eigenvalues not converged
     c_bands:  1 eigenvalues not converged
     c_bands:  3 eigenvalues not converged
     c_bands:  2 eigenvalues not converged
     c_bands:  1 eigenvalues not converged
     c_bands:  1 eigenvalues not converged
     c_bands:  2 eigenvalues not converged
     ethr =  2.69E-08,  avg # of iterations =  5.4

     total cpu time spent up to now is      994.4 secs

     total energy              =    -517.49266370 Ry
     estimated scf accuracy    <       0.00005855 Ry

     total magnetization       =     0.67 Bohr mag/cell
     absolute magnetization    =     0.69 Bohr mag/cell

     iteration # 42     ecut=   120.00 Ry     beta= 0.50
     Davidson diagonalization with overlap

---- Real-time Memory Report at c_bands before calling an iterative solver
           140 MiB given to the printing process from OS
             0 MiB allocation reported by mallinfo(arena+hblkhd)
         32404 MiB available memory on the node where the printing process lives
------------------
     c_bands:  2 eigenvalues not converged
     c_bands:  1 eigenvalues not converged
     c_bands:  2 eigenvalues not converged
     c_bands:  3 eigenvalues not converged
[...]
    22.6973  23.0022  23.1008  23.2244  23.4835  23.5180  23.6961  23.7310

     occupation numbers 
     1.0000   1.0000   1.0000   1.0000   1.0000   1.0000   1.0000   1.0000
     1.0000   1.0000   1.0000   1.0000   1.0000   1.0000   1.0000   1.0000
     1.0000   1.0000   1.0000   1.0000   1.0012   1.0497   1.0692   1.0702
     1.0636   0.9001   0.8107   0.6820   0.4017   0.3676   0.2164   0.1924

          k = 0.3333 0.1668 0.3337 ( 12980 PWs)   bands (ev):

   -20.3340 -20.0914 -20.0452 -19.5200   2.5012   2.6289   2.6956   3.4919
     4.1247   4.6923   4.9041   5.4475   5.5629   5.6178   5.9623   6.4020
    20.4163  20.5596  20.8381  20.8550  22.1667  22.1753  22.3783  22.6823
    22.6980  22.7895  23.0721  23.2028  23.4274  23.5789  23.5972  23.6682

     occupation numbers 
     1.0000   1.0000   1.0000   1.0000   1.0000   1.0000   1.0000   1.0000
     1.0000   1.0000   1.0000   1.0000   1.0000   1.0000   1.0000   1.0000
     1.0000   1.0000   1.0000   1.0000   1.0469   1.0481   1.0746   1.0671
     1.0634   1.0331   0.8383   0.7055   0.4597   0.3109   0.2948   0.2371

          k = 0.3333 0.1668-0.5005 ( 12962 PWs)   bands (ev):

   -20.2381 -20.1722 -20.0473 -19.5330   2.4532   2.5420   2.9161   2.9285
     4.3415   4.5229   5.3183   5.4988   5.6262   5.6753   6.0665   6.1364
    20.9366  21.0009  21.1452  21.1555  21.9466  21.9656  21.9947  22.0057
    22.8540  22.9506  23.1367  23.2290  23.4345  23.5656  23.6743  23.7381

     occupation numbers 
     1.0000   1.0000   1.0000   1.0000   1.0000   1.0000   1.0000   1.0000
     1.0000   1.0000   1.0000   1.0000   1.0000   1.0000   1.0000   1.0000
     1.0000   1.0001   1.0002   1.0002   1.0217   1.0234   1.0263   1.0274
     1.0021   0.9404   0.7749   0.6771   0.4522   0.3229   0.2325   0.1877

          k = 0.3333 0.3337 0.3337 ( 12956 PWs)   bands (ev):

   -20.2674 -20.1022 -20.0814 -19.5335   2.1608   2.2910   2.2985   2.8098
     5.0238   5.0354   5.3576   5.6039   5.7288   5.7375   6.2414   6.2504
    20.0119  20.7050  20.7124  20.7132  21.9409  21.9456  21.9457  22.4044
    23.1074  23.1514  23.1668  23.4666  23.4822  23.6534  23.6572  23.6774

     occupation numbers 
     1.0000   1.0000   1.0000   1.0000   1.0000   1.0000   1.0000   1.0000
     1.0000   1.0000   1.0000   1.0000   1.0000   1.0000   1.0000   1.0000
     1.0000   1.0000   1.0000   1.0000   1.0212   1.0216   1.0216   1.0772
     0.8042   0.7597   0.7437   0.4188   0.4030   0.2485   0.2455   0.2302

          k = 0.3333 0.3337-0.5005 ( 12968 PWs)   bands (ev):

   -20.1969 -20.1604 -20.0840 -19.5401   2.0394   2.1340   2.3460   2.3676
     5.1307   5.3224   5.7339   5.7420   5.8378   5.9397   6.0684   6.1249
    20.2493  20.2996  20.8858  20.8982  21.5506  21.5763  22.0423  22.0456
    23.2518  23.2768  23.2817  23.4095  23.4898  23.5801  23.6913  23.7465

     occupation numbers 
     1.0000   1.0000   1.0000   1.0000   1.0000   1.0000   1.0000   1.0000
     1.0000   1.0000   1.0000   1.0000   1.0000   1.0000   1.0000   1.0000
     1.0000   1.0000   1.0000   1.0000   1.0029   1.0034   1.0313   1.0317
     0.6521   0.6245   0.6190   0.4787   0.3953   0.3098   0.2199   0.1822

          k = 0.3333-0.5005-0.5005 ( 12932 PWs)   bands (ev):

   -20.1543 -20.1543 -20.1242 -19.5438   1.9314   2.0573   2.0819   2.0819
     5.5970   5.6392   5.6392   5.9096   5.9184   5.9201   6.2012   6.2012
    20.2234  20.2234  20.2395  20.3111  21.8825  21.9263  21.9310  21.9310
    23.3182  23.3502  23.3907  23.4107  23.4107  23.6909  23.6909  23.7542

     occupation numbers 
     1.0000   1.0000   1.0000   1.0000   1.0000   1.0000   1.0000   1.0000
     1.0000   1.0000   1.0000   1.0000   1.0000   1.0000   1.0000   1.0000
     1.0000   1.0000   1.0000   1.0000   1.0165   1.0199   1.0203   1.0203
     0.5785   0.5433   0.4989   0.4774   0.4774   0.2202   0.2202   0.1774

          k =-0.5000 0.0000 0.0000 ( 13022 PWs)   bands (ev):

   -20.3770 -20.2028 -19.9403 -19.4743   3.2296   3.2296   3.4496   3.4496
     3.9413   4.0893   4.5349   4.8303   5.5819   5.5819   5.8450   5.8450
    20.6723  20.7706  20.8892  20.9637  21.4914  21.5085  22.6239  22.6461
    22.6461  22.8011  22.8011  22.8092  23.5161  23.6129  23.8422  23.8422

     occupation numbers 
     1.0000   1.0000   1.0000   1.0000   1.0000   1.0000   1.0000   1.0000
     1.0000   1.0000   1.0000   1.0000   1.0000   1.0000   1.0000   1.0000
     1.0000   1.0000   1.0000   1.0000   1.0020   1.0022   1.0772   1.0740
     1.0740   1.0282   1.0282   1.0246   0.3694   0.2814   0.1279   0.1279

          k =-0.5000 0.0000 0.1668 ( 12976 PWs)   bands (ev):

   -20.3479 -20.1858 -19.9696 -19.4914   3.0621   3.2004   3.3584   3.5757
     3.7203   3.8365   4.9328   5.0921   5.3843   5.6497   5.8162   5.9906
    21.0125  21.1013  21.1752  21.2376  21.2771  21.3113  22.5918  22.6964
    22.7485  22.8329  22.9153  22.9250  23.1017  23.3168  23.8333  23.9338

     occupation numbers 
     1.0000   1.0000   1.0000   1.0000   1.0000   1.0000   1.0000   1.0000
     1.0000   1.0000   1.0000   1.0000   1.0000   1.0000   1.0000   1.0000
     1.0001   1.0001   1.0002   1.0004   1.0005   1.0006   1.0806   1.0638
     1.0486   1.0132   0.9651   0.9585   0.8098   0.5801   0.1324   0.0880

          k =-0.5000 0.0000 0.3337 ( 12960 PWs)   bands (ev):

   -20.2681 -20.1490 -20.0497 -19.5285   2.8860   2.9482   3.3151   3.3611
     3.7262   3.9289   4.8835   5.1625   5.5637   5.6176   6.0981   6.1675
    21.0034  21.0189  21.8396  21.8961  21.9122  21.9351  22.1406  22.2745
    22.7215  22.8141  22.8224  22.8870  23.5376  23.5671  23.6143  23.6528

     occupation numbers 
     1.0000   1.0000   1.0000   1.0000   1.0000   1.0000   1.0000   1.0000
     1.0000   1.0000   1.0000   1.0000   1.0000   1.0000   1.0000   1.0000
     1.0001   1.0001   1.0136   1.0175   1.0188   1.0207   1.0434   1.0617
     1.0571   1.0223   1.0184   0.9831   0.3488   0.3215   0.2803   0.2490

          k =-0.5000 0.0000-0.5005 ( 12948 PWs)   bands (ev):

   -20.1590 -20.1589 -20.1288 -19.5488   2.8920   2.9088   3.0893   3.0910
     4.2667   4.2786   4.3034   4.7232   5.9076   5.9175   6.1540   6.1544
    21.2527  21.2532  21.2812  21.2898  22.6217  22.6251  22.6276  22.6986
    22.7077  22.7233  22.8351  22.8402  23.2741  23.3419  23.3887  23.6735

     occupation numbers 
     1.0000   1.0000   1.0000   1.0000   1.0000   1.0000   1.0000   1.0000
     1.0000   1.0000   1.0000   1.0000   1.0000   1.0000   1.0000   1.0000
     1.0004   1.0004   1.0005   1.0005   1.0775   1.0770   1.0767   1.0632
     1.0609   1.0566   1.0121   1.0095   0.6274   0.5523   0.5012   0.2331

          k =-0.5000 0.1668 0.1668 ( 12998 PWs)   bands (ev):

   -20.3222 -20.1721 -19.9946 -19.5044   2.6980   2.8281   3.4056   3.4865
     3.8002   4.0413   5.1314   5.2488   5.6631   5.7219   5.7946   5.9350
    20.7593  20.8504  21.1932  21.2221  21.9274  21.9609  22.1996  22.2630
    22.6277  22.6896  23.0099  23.0892  23.2380  23.4557  23.8512  23.8808

     occupation numbers 
     1.0000   1.0000   1.0000   1.0000   1.0000   1.0000   1.0000   1.0000
     1.0000   1.0000   1.0000   1.0000   1.0000   1.0000   1.0000   1.0000
     1.0000   1.0000   1.0003   1.0003   1.0200   1.0230   1.0514   1.0601
     1.0767   1.0654   0.8936   0.8219   0.6672   0.4301   0.1235   0.1097

          k =-0.5000 0.1668 0.3337 ( 12962 PWs)   bands (ev):

   -20.2524 -20.1430 -20.0631 -19.5322   2.4483   2.5465   2.9190   2.9271
     4.3297   4.5354   5.3132   5.5086   5.6195   5.6755   6.0637   6.1413
    20.9327  21.0086  21.1409  21.1538  21.9425  21.9630  21.9902  22.0045
    22.8433  22.9709  23.1365  23.2321  23.4120  23.5852  23.6550  23.7427

     occupation numbers 
     1.0000   1.0000   1.0000   1.0000   1.0000   1.0000   1.0000   1.0000
     1.0000   1.0000   1.0000   1.0000   1.0000   1.0000   1.0000   1.0000
     1.0000   1.0001   1.0002   1.0002   1.0213   1.0232   1.0258   1.0273
     1.0079   0.9251   0.7751   0.6736   0.4760   0.3053   0.2472   0.1847

          k =-0.5000 0.1668-0.5005 ( 12920 PWs)   bands (ev):

   -20.1575 -20.1574 -20.1273 -19.5471   2.4545   2.5477   2.6114   2.6188
     4.8209   4.8699   4.8885   5.2013   5.9104   5.9204   6.1607   6.1616
    21.1368  21.1383  21.1898  21.2108  21.7398  21.8039  21.8068  21.8122
    23.2115  23.2656  23.2956  23.3121  23.3294  23.4405  23.4730  23.7642

     occupation numbers 
     1.0000   1.0000   1.0000   1.0000   1.0000   1.0000   1.0000   1.0000
     1.0000   1.0000   1.0000   1.0000   1.0000   1.0000   1.0000   1.0000
     1.0002   1.0002   1.0002   1.0003   1.0084   1.0115   1.0116   1.0119
     0.6960   0.6368   0.6037   0.5853   0.5662   0.4459   0.4123   0.1711

          k =-0.5000 0.3337 0.3337 ( 12962 PWs)   bands (ev):

   -20.2102 -20.1306 -20.1008 -19.5398   2.0364   2.1397   2.3407   2.3723
     5.1209   5.3383   5.7346   5.7489   5.8305   5.9314   6.0603   6.1333
    20.2455  20.3057  20.8829  20.8957  21.5470  21.5766  22.0394  22.0446
    23.2409  23.2836  23.2969  23.3844  23.5059  23.5825  23.6822  23.7561

     occupation numbers 
     1.0000   1.0000   1.0000   1.0000   1.0000   1.0000   1.0000   1.0000
     1.0000   1.0000   1.0000   1.0000   1.0000   1.0000   1.0000   1.0000
     1.0000   1.0000   1.0000   1.0000   1.0028   1.0034   1.0310   1.0316
     0.6640   0.6170   0.6022   0.5058   0.3794   0.3077   0.2266   0.1762

          k =-0.5000 0.3337-0.5005 ( 12940 PWs)   bands (ev):

   -20.1544 -20.1544 -20.1242 -19.5438   1.9328   2.0685   2.0719   2.0817
     5.5889   5.6358   5.6493   5.9161   5.9184   5.9354   6.1878   6.1912
    20.2239  20.2297  20.2328  20.3103  21.8807  21.9269  21.9284  21.9306
    23.3216  23.3418  23.3870  23.4149  23.4165  23.6750  23.6933  23.7683

     occupation numbers 
     1.0000   1.0000   1.0000   1.0000   1.0000   1.0000   1.0000   1.0000
     1.0000   1.0000   1.0000   1.0000   1.0000   1.0000   1.0000   1.0000
     1.0000   1.0000   1.0000   1.0000   1.0164   1.0200   1.0201   1.0203
     0.5748   0.5525   0.5029   0.4729   0.4713   0.2319   0.2185   0.1686

          k =-0.5000-0.5005-0.5005 ( 12856 PWs)   bands (ev):

   -20.1528 -20.1528 -20.1227 -19.5421   1.7377   1.8729   1.8832   1.8832
     5.9124   5.9210   5.9212   5.9286   5.9286   6.2356   6.2444   6.2444
    19.7822  19.7822  19.7889  19.8702  22.0707  22.1223  22.1263  22.1263
    23.3346  23.3593  23.4052  23.4316  23.4316  23.7571  23.7717  23.7717

     occupation numbers 
     1.0000   1.0000   1.0000   1.0000   1.0000   1.0000   1.0000   1.0000
     1.0000   1.0000   1.0000   1.0000   1.0000   1.0000   1.0000   1.0000
     1.0000   1.0000   1.0000   1.0000   1.0346   1.0410   1.0415   1.0415
     0.5604   0.5332   0.4834   0.4552   0.4552   0.1756   0.1666   0.1666

     the Fermi energy is    23.4845 ev

!    total energy              =    -517.49494518 Ry
     estimated scf accuracy    <          9.8E-09 Ry
     smearing contrib. (-TS)   =      -0.04283575 Ry
     internal energy E=F+TS    =    -517.45210943 Ry

     The total energy is F=E-TS. E is the sum of the following terms:
     one-electron contribution =      42.00956079 Ry
     hartree contribution      =      37.19839057 Ry
     xc contribution           =    -166.68851132 Ry
     ewald contribution        =    -429.97154946 Ry

     total magnetization       =    -0.95 Bohr mag/cell
     absolute magnetization    =     3.31 Bohr mag/cell

     convergence has been achieved in 107 iterations

     Forces acting on atoms (cartesian axes, Ry/au):

     atom    1 type  1   force =     0.00000000    0.00000000    0.00000000
     atom    2 type  1   force =     0.00000000    0.00000000    0.00000000
     atom    3 type  1   force =     0.00000000    0.00000000    0.00000000
     atom    4 type  1   force =     0.00000000    0.00000000    0.00000000
     The non-local contrib.  to forces
     atom    1 type  1   force =     0.00000000    0.00000000    0.00000000
     atom    2 type  1   force =     0.00000000    0.00000000    0.00000000
     atom    3 type  1   force =     0.00000000    0.00000000    0.00000000
     atom    4 type  1   force =     0.00000000    0.00000000    0.00000000
     The ionic contribution  to forces
     atom    1 type  1   force =    -0.00000000   -0.00000000   -0.00000000
     atom    2 type  1   force =     0.00000000    0.00000000   -0.00000000
     atom    3 type  1   force =     0.00000000   -0.00000000    0.00000000
     atom    4 type  1   force =    -0.00000000    0.00000000    0.00000000
     The local contribution  to forces
     atom    1 type  1   force =     0.00000000   -0.00000000    0.00000000
     atom    2 type  1   force =     0.00000000    0.00000000    0.00000000
     atom    3 type  1   force =     0.00000000    0.00000000    0.00000000
     atom    4 type  1   force =     0.00000000    0.00000000    0.00000000
     The core correction contribution to forces
     atom    1 type  1   force =     0.00000000   -0.00000000    0.00000000
     atom    2 type  1   force =    -0.00000000   -0.00000000    0.00000000
     atom    3 type  1   force =    -0.00000000    0.00000000   -0.00000000
     atom    4 type  1   force =     0.00000000   -0.00000000   -0.00000000
     The Hubbard contrib.    to forces
     atom    1 type  1   force =     0.00000000    0.00000000    0.00000000
     atom    2 type  1   force =     0.00000000    0.00000000    0.00000000
     atom    3 type  1   force =     0.00000000    0.00000000    0.00000000
     atom    4 type  1   force =     0.00000000    0.00000000    0.00000000
     The SCF correction term to forces
     atom    1 type  1   force =     0.00000000   -0.00000000    0.00000000
     atom    2 type  1   force =    -0.00000000    0.00000000    0.00000000
     atom    3 type  1   force =     0.00000000   -0.00000000   -0.00000000
     atom    4 type  1   force =     0.00000000   -0.00000000    0.00000000

     Total force =     0.000000     Total SCF correction =     0.000000


     Computing stress (Cartesian axis) and pressure

          total   stress  (Ry/bohr**3)                   (kbar)     P=        8.56
   0.00006455   0.00000000   0.00000000            9.50        0.00        0.00
   0.00000000   0.00005498   0.00000000            0.00        8.09        0.00
   0.00000000   0.00000000   0.00005498            0.00        0.00        8.09

     kinetic stress (kbar)  31543.19      0.00      0.00
                                0.00  31542.92      0.00
                                0.00      0.00  31542.92

     local   stress (kbar)   8589.83     -0.00     -0.00
                               -0.00   8587.35      0.00
                               -0.00      0.00   8587.35

     nonloc. stress (kbar)   -581.13      0.00      0.00
                                0.00   -585.49      0.00
                                0.00      0.00   -585.49

     hartree stress (kbar)   3121.64     -0.00      0.00
                               -0.00   3122.07     -0.00
                                0.00     -0.00   3122.07

     exc-cor stress (kbar)  21179.88      0.00     -0.00
                                0.00  21179.90      0.00
                               -0.00      0.00  21179.90

     corecor stress (kbar) -27754.60     -0.00      0.00
                               -0.00 -27754.38     -0.00
                                0.00     -0.00 -27754.38

     ewald   stress (kbar) -36089.32      0.00      0.00
                                0.00 -36084.28     -0.00
                                0.00     -0.00 -36084.28

     hubbard stress (kbar)      0.00      0.00      0.00
                                0.00      0.00      0.00
                                0.00      0.00      0.00

     DFT-D   stress (kbar)      0.00      0.00      0.00
                                0.00      0.00      0.00
                                0.00      0.00      0.00

     XDM     stress (kbar)      0.00      0.00      0.00
                                0.00      0.00      0.00
                                0.00      0.00      0.00

     dft-nl  stress (kbar)      0.00      0.00      0.00
                                0.00      0.00      0.00
                                0.00      0.00      0.00

     TS-vdW  stress (kbar)      0.00      0.00      0.00
                                0.00      0.00      0.00
                                0.00      0.00      0.00


                                0.00      0.00      0.00
                                0.00      0.00      0.00


                                0.00      0.00      0.00


     Writing output data file ./Uranium.save/

     init_run     :      6.90s CPU      7.13s WALL (       1 calls)
     electrons    :   3681.79s CPU   3757.62s WALL (       1 calls)
     forces       :      4.94s CPU      5.07s WALL (       1 calls)
     stress       :      8.93s CPU      9.25s WALL (       1 calls)

     Called by init_run:
     wfcinit      :      4.86s CPU      4.95s WALL (       1 calls)
     wfcinit:wfcr :      4.58s CPU      4.67s WALL (      80 calls)
     potinit      :      0.37s CPU      0.39s WALL (       1 calls)
     hinit0       :      0.66s CPU      0.68s WALL (       1 calls)

     Called by electrons:
     c_bands      :   3332.12s CPU   3385.18s WALL (     107 calls)
     sum_band     :    266.08s CPU    279.25s WALL (     107 calls)
     v_of_rho     :     14.19s CPU     14.34s WALL (     108 calls)
     v_h          :      0.31s CPU      0.31s WALL (     108 calls)
     v_xc         :     14.13s CPU     14.29s WALL (     110 calls)
     newd         :     67.25s CPU     76.56s WALL (     108 calls)
     mix_rho      :      1.84s CPU      1.92s WALL (     107 calls)

     Called by c_bands:
     init_us_2    :     13.40s CPU     13.71s WALL (   17360 calls)
     cegterg      :   3253.85s CPU   3305.52s WALL (    8866 calls)

     Called by sum_band:
     sum_band:wei :      0.93s CPU      0.95s WALL (     107 calls)
     sum_band:loo :    189.66s CPU    193.39s WALL (     107 calls)
     sum_band:buf :      0.76s CPU      0.80s WALL (    8560 calls)
     sum_band:ini :      5.82s CPU      6.01s WALL (    8560 calls)
     sum_band:cal :     69.56s CPU     70.60s WALL (    8560 calls)
     sum_band:bec :      5.23s CPU      5.28s WALL (    8560 calls)
     addusdens    :     61.39s CPU     70.26s WALL (     107 calls)
     addusd:skk   :      0.04s CPU      0.04s WALL (     107 calls)
     addusd:dgemm :     16.51s CPU     23.34s WALL (     214 calls)
     addusd:qvan2 :     41.78s CPU     42.02s WALL (     214 calls)

     Called by *egterg:
     cdiaghg      :    449.99s CPU    452.54s WALL (  123859 calls)
     cegterg:over :    361.78s CPU    370.53s WALL (  114993 calls)
     cegterg:upda :     77.78s CPU     78.34s WALL (  114993 calls)
     cegterg:last :    262.18s CPU    263.43s WALL (   37479 calls)
     h_psi        :   1648.46s CPU   1679.41s WALL (  123939 calls)
     s_psi        :    253.15s CPU    254.86s WALL (  123939 calls)
     g_psi        :      4.47s CPU      4.53s WALL (  114993 calls)

     Called by h_psi:
     h_psi:calbec :    340.20s CPU    346.40s WALL (  123939 calls)
     vloc_psi     :   1052.13s CPU   1075.42s WALL (  123939 calls)
     add_vuspsi   :    252.81s CPU    254.31s WALL (  123939 calls)

     General routines
     calbec       :    413.40s CPU    420.82s WALL (  132899 calls)
     fft          :      7.28s CPU      7.40s WALL (    2738 calls)
     ffts         :      0.34s CPU      0.35s WALL (     430 calls)
     fftw         :   1111.26s CPU   1135.88s WALL ( 2868004 calls)
     interpolate  :      0.68s CPU      0.69s WALL (     216 calls)

     Parallel routines

     PWSCF        :      1h 1m CPU      1h 3m WALL


   This run was terminated on:   4:33:28   9Dec2021            

=------------------------------------------------------------------------------=
   JOB DONE.
=------------------------------------------------------------------------------=
