
     Program PWSCF v.6.8 starts on  8Dec2021 at 13:12: 4 

     This program is part of the open-source Quantum ESPRESSO suite
     for quantum simulation of materials; please cite
         "P. Giannozzi et al., J. Phys.:Condens. Matter 21 395502 (2009);
         "P. Giannozzi et al., J. Phys.:Condens. Matter 29 465901 (2017);
         "P. Giannozzi et al., J. Chem. Phys. 152 154105 (2020);
          URL http://www.quantum-espresso.org", 
     in publications or presentations arising from this work. More details at
     http://www.quantum-espresso.org/quote

     Parallel version (MPI), running on    32 processors

     MPI processes distributed on     1 nodes
     R & G space division:  proc/nbgrp/npool/nimage =      32
     32669 MiB available memory on the printing compute node when the environment starts

     Reading input from runc.in
Warning: card &CELL ignored
Warning: card    CELL_DYNAMICS = 'BFGS' , ignored
Warning: card    CELL_DOFREE = 'ALL', ignored
Warning: card    PRESS_CONV_THR = 0.5 , ! THIS IS THE DEFAULT ignored
Warning: card  / ignored

     Current dimensions of program PWSCF are:
     Max number of different atomic species (ntypx) = 10
     Max number of k-points (npk) =  40000
     Max angular momentum in pseudopotentials (lmaxx) =  4
     file U.pbe-spfn-rrkjus_psl.1.0.0.UPF: wavefunction(s)  5F renormalized
     Found symmetry operation: I + ( -0.5000  0.5000  0.0000)
     This is a supercell, fractional translations are disabled
     Message from routine setup:
     using ibrav=0 with symmetry is DISCOURAGED, use correct ibrav instead

     Subspace diagonalization in iterative solution of the eigenvalue problem:
     a serial algorithm will be used


     Parallelization info
     --------------------
     sticks:   dense  smooth     PW     G-vecs:    dense   smooth      PW
     Min         223     111     30                14215     5019     730
     Max         224     112     31                14220     5024     735
     Sum        7145    3569    989               454951   160707   23439

     Using Slab Decomposition



     bravais-lattice index     =            0
     lattice parameter (alat)  =       8.3778  a.u.
     unit-cell volume          =     588.0141 (a.u.)^3
     number of atoms/cell      =            4
     number of atomic types    =            1
     number of electrons       =        56.00
     number of Kohn-Sham states=           32
     kinetic-energy cutoff     =     160.0000  Ry
     charge density cutoff     =    1280.0000  Ry
     scf convergence threshold =      1.0E-08
     mixing beta               =       0.5000
     number of iterations used =            8  plain     mixing
     Exchange-correlation= PBE
                           (   1   4   3   4   0   0   0)

     celldm(1)=   8.377785  celldm(2)=   0.000000  celldm(3)=   0.000000
     celldm(4)=   0.000000  celldm(5)=   0.000000  celldm(6)=   0.000000

     crystal axes: (cart. coord. in units of alat)
               a(1) = (   1.000000   0.000000   0.000000 )  
               a(2) = (   0.000000   1.000000   0.000000 )  
               a(3) = (   0.000000   0.000000   1.000000 )  

     reciprocal axes: (cart. coord. in units 2 pi/alat)
               b(1) = (  1.000000  0.000000  0.000000 )  
               b(2) = (  0.000000  1.000000  0.000000 )  
               b(3) = (  0.000000  0.000000  1.000000 )  


     PseudoPot. # 1 for U  read from file:
     /home/myhawary/QE/runs/pseudo/U.pbe-spfn-rrkjus_psl.1.0.0.UPF
     MD5 check sum: b50a7459bb2a1ad67e79ea3a31ec714c
     Pseudo is Ultrasoft + core correction, Zval = 14.0
     Generated using &quot;atomic&quot; code by A. Dal Corso  v.6.2.2
     Using radial grid of 1291 points,  8 beta functions with: 
                l(1) =   0
                l(2) =   0
                l(3) =   1
                l(4) =   1
                l(5) =   2
                l(6) =   2
                l(7) =   3
                l(8) =   3
     Q(r) pseudized with 0 coefficients 


     atomic species   valence    mass     pseudopotential
        U             14.00   238.00000     U ( 1.00)

     Starting magnetic structure 
     atomic species   magnetization
        U            0.100

     48 Sym. Ops., with inversion, found


                                    s                        frac. trans.

      isym =  1     identity                                     

 cryst.   s( 1) = (     1          0          0      )
                  (     0          1          0      )
                  (     0          0          1      )

 cart.    s( 1) = (  1.0000000  0.0000000  0.0000000 )
                  (  0.0000000  1.0000000  0.0000000 )
                  (  0.0000000  0.0000000  1.0000000 )


      isym =  2     180 deg rotation - cart. axis [0,0,1]        

 cryst.   s( 2) = (    -1          0          0      )
                  (     0         -1          0      )
                  (     0          0          1      )

 cart.    s( 2) = ( -1.0000000  0.0000000  0.0000000 )
                  (  0.0000000 -1.0000000  0.0000000 )
                  (  0.0000000  0.0000000  1.0000000 )


      isym =  3     180 deg rotation - cart. axis [0,1,0]        

 cryst.   s( 3) = (    -1          0          0      )
                  (     0          1          0      )
                  (     0          0         -1      )

 cart.    s( 3) = ( -1.0000000  0.0000000  0.0000000 )
                  (  0.0000000  1.0000000  0.0000000 )
                  (  0.0000000  0.0000000 -1.0000000 )


      isym =  4     180 deg rotation - cart. axis [1,0,0]        

 cryst.   s( 4) = (     1          0          0      )
                  (     0         -1          0      )
                  (     0          0         -1      )

 cart.    s( 4) = (  1.0000000  0.0000000  0.0000000 )
                  (  0.0000000 -1.0000000  0.0000000 )
                  (  0.0000000  0.0000000 -1.0000000 )


      isym =  5     180 deg rotation - cart. axis [1,1,0]        

 cryst.   s( 5) = (     0          1          0      )
                  (     1          0          0      )
                  (     0          0         -1      )

 cart.    s( 5) = (  0.0000000  0.9999999  0.0000000 )
                  (  1.0000001  0.0000000  0.0000000 )
                  (  0.0000000  0.0000000 -1.0000000 )


      isym =  6     180 deg rotation - cart. axis [1,-1,0]       

 cryst.   s( 6) = (     0         -1          0      )
                  (    -1          0          0      )
                  (     0          0         -1      )

 cart.    s( 6) = (  0.0000000 -0.9999999  0.0000000 )
                  ( -1.0000001  0.0000000  0.0000000 )
                  (  0.0000000  0.0000000 -1.0000000 )


      isym =  7      90 deg rotation - cart. axis [0,0,-1]       

 cryst.   s( 7) = (     0         -1          0      )
                  (     1          0          0      )
                  (     0          0          1      )

 cart.    s( 7) = (  0.0000000  0.9999999  0.0000000 )
                  ( -1.0000001  0.0000000  0.0000000 )
                  (  0.0000000  0.0000000  1.0000000 )


      isym =  8      90 deg rotation - cart. axis [0,0,1]        

 cryst.   s( 8) = (     0          1          0      )
                  (    -1          0          0      )
                  (     0          0          1      )

 cart.    s( 8) = (  0.0000000 -0.9999999  0.0000000 )
                  (  1.0000001  0.0000000  0.0000000 )
                  (  0.0000000  0.0000000  1.0000000 )


      isym =  9     180 deg rotation - cart. axis [1,0,1]        

 cryst.   s( 9) = (     0          0          1      )
                  (     0         -1          0      )
                  (     1          0          0      )

 cart.    s( 9) = (  0.0000000  0.0000000  0.9999999 )
                  (  0.0000000 -1.0000000  0.0000000 )
                  (  1.0000001  0.0000000  0.0000000 )


      isym = 10     180 deg rotation - cart. axis [-1,0,1]       

 cryst.   s(10) = (     0          0         -1      )
                  (     0         -1          0      )
                  (    -1          0          0      )

 cart.    s(10) = (  0.0000000  0.0000000 -0.9999999 )
                  (  0.0000000 -1.0000000  0.0000000 )
                  ( -1.0000001  0.0000000  0.0000000 )


      isym = 11      90 deg rotation - cart. axis [0,1,0]        

 cryst.   s(11) = (     0          0         -1      )
                  (     0          1          0      )
                  (     1          0          0      )

 cart.    s(11) = (  0.0000000  0.0000000  0.9999999 )
                  (  0.0000000  1.0000000  0.0000000 )
                  ( -1.0000001  0.0000000  0.0000000 )


      isym = 12      90 deg rotation - cart. axis [0,-1,0]       

 cryst.   s(12) = (     0          0          1      )
                  (     0          1          0      )
                  (    -1          0          0      )

 cart.    s(12) = (  0.0000000  0.0000000 -0.9999999 )
                  (  0.0000000  1.0000000  0.0000000 )
                  (  1.0000001  0.0000000  0.0000000 )


      isym = 13     180 deg rotation - cart. axis [0,1,1]        

 cryst.   s(13) = (    -1          0          0      )
                  (     0          0          1      )
                  (     0          1          0      )

 cart.    s(13) = ( -1.0000000  0.0000000  0.0000000 )
                  (  0.0000000  0.0000000  1.0000000 )
                  (  0.0000000  1.0000000  0.0000000 )


      isym = 14     180 deg rotation - cart. axis [0,1,-1]       

 cryst.   s(14) = (    -1          0          0      )
                  (     0          0         -1      )
                  (     0         -1          0      )

 cart.    s(14) = ( -1.0000000  0.0000000  0.0000000 )
                  (  0.0000000  0.0000000 -1.0000000 )
                  (  0.0000000 -1.0000000  0.0000000 )


      isym = 15      90 deg rotation - cart. axis [-1,0,0]       

 cryst.   s(15) = (     1          0          0      )
                  (     0          0         -1      )
                  (     0          1          0      )

 cart.    s(15) = (  1.0000000  0.0000000  0.0000000 )
                  (  0.0000000  0.0000000  1.0000000 )
                  (  0.0000000 -1.0000000  0.0000000 )


      isym = 16      90 deg rotation - cart. axis [1,0,0]        

 cryst.   s(16) = (     1          0          0      )
                  (     0          0          1      )
                  (     0         -1          0      )

 cart.    s(16) = (  1.0000000  0.0000000  0.0000000 )
                  (  0.0000000  0.0000000 -1.0000000 )
                  (  0.0000000  1.0000000  0.0000000 )


      isym = 17     120 deg rotation - cart. axis [-1,-1,-1]     

 cryst.   s(17) = (     0          0          1      )
                  (     1          0          0      )
                  (     0          1          0      )

 cart.    s(17) = (  0.0000000  0.9999999  0.0000000 )
                  (  0.0000000  0.0000000  1.0000000 )
                  (  1.0000001  0.0000000  0.0000000 )


      isym = 18     120 deg rotation - cart. axis [-1,1,1]       

 cryst.   s(18) = (     0          0         -1      )
                  (    -1          0          0      )
                  (     0          1          0      )

 cart.    s(18) = (  0.0000000 -0.9999999  0.0000000 )
                  (  0.0000000  0.0000000  1.0000000 )
                  ( -1.0000001  0.0000000  0.0000000 )


      isym = 19     120 deg rotation - cart. axis [1,1,-1]       

 cryst.   s(19) = (     0          0         -1      )
                  (     1          0          0      )
                  (     0         -1          0      )

 cart.    s(19) = (  0.0000000  0.9999999  0.0000000 )
                  (  0.0000000  0.0000000 -1.0000000 )
                  ( -1.0000001  0.0000000  0.0000000 )


      isym = 20     120 deg rotation - cart. axis [1,-1,1]       

 cryst.   s(20) = (     0          0          1      )
                  (    -1          0          0      )
                  (     0         -1          0      )

 cart.    s(20) = (  0.0000000 -0.9999999  0.0000000 )
                  (  0.0000000  0.0000000 -1.0000000 )
                  (  1.0000001  0.0000000  0.0000000 )


      isym = 21     120 deg rotation - cart. axis [1,1,1]        

 cryst.   s(21) = (     0          1          0      )
                  (     0          0          1      )
                  (     1          0          0      )

 cart.    s(21) = (  0.0000000  0.0000000  0.9999999 )
                  (  1.0000001  0.0000000  0.0000000 )
                  (  0.0000000  1.0000000  0.0000000 )


      isym = 22     120 deg rotation - cart. axis [-1,1,-1]      

 cryst.   s(22) = (     0         -1          0      )
                  (     0          0         -1      )
                  (     1          0          0      )

 cart.    s(22) = (  0.0000000  0.0000000  0.9999999 )
                  ( -1.0000001  0.0000000  0.0000000 )
                  (  0.0000000 -1.0000000  0.0000000 )


      isym = 23     120 deg rotation - cart. axis [1,-1,-1]      

 cryst.   s(23) = (     0         -1          0      )
                  (     0          0          1      )
                  (    -1          0          0      )

 cart.    s(23) = (  0.0000000  0.0000000 -0.9999999 )
                  ( -1.0000001  0.0000000  0.0000000 )
                  (  0.0000000  1.0000000  0.0000000 )


      isym = 24     120 deg rotation - cart. axis [-1,-1,1]      

 cryst.   s(24) = (     0          1          0      )
                  (     0          0         -1      )
                  (    -1          0          0      )

 cart.    s(24) = (  0.0000000  0.0000000 -0.9999999 )
                  (  1.0000001  0.0000000  0.0000000 )
                  (  0.0000000 -1.0000000  0.0000000 )


      isym = 25     inversion                                    

 cryst.   s(25) = (    -1          0          0      )
                  (     0         -1          0      )
                  (     0          0         -1      )

 cart.    s(25) = ( -1.0000000  0.0000000  0.0000000 )
                  (  0.0000000 -1.0000000  0.0000000 )
                  (  0.0000000  0.0000000 -1.0000000 )


      isym = 26     inv. 180 deg rotation - cart. axis [0,0,1]   

 cryst.   s(26) = (     1          0          0      )
                  (     0          1          0      )
                  (     0          0         -1      )

 cart.    s(26) = (  1.0000000  0.0000000  0.0000000 )
                  (  0.0000000  1.0000000  0.0000000 )
                  (  0.0000000  0.0000000 -1.0000000 )


      isym = 27     inv. 180 deg rotation - cart. axis [0,1,0]   

 cryst.   s(27) = (     1          0          0      )
                  (     0         -1          0      )
                  (     0          0          1      )

 cart.    s(27) = (  1.0000000  0.0000000  0.0000000 )
                  (  0.0000000 -1.0000000  0.0000000 )
                  (  0.0000000  0.0000000  1.0000000 )


      isym = 28     inv. 180 deg rotation - cart. axis [1,0,0]   

 cryst.   s(28) = (    -1          0          0      )
                  (     0          1          0      )
                  (     0          0          1      )

 cart.    s(28) = ( -1.0000000  0.0000000  0.0000000 )
                  (  0.0000000  1.0000000  0.0000000 )
                  (  0.0000000  0.0000000  1.0000000 )


      isym = 29     inv. 180 deg rotation - cart. axis [1,1,0]   

 cryst.   s(29) = (     0         -1          0      )
                  (    -1          0          0      )
                  (     0          0          1      )

 cart.    s(29) = (  0.0000000 -0.9999999  0.0000000 )
                  ( -1.0000001  0.0000000  0.0000000 )
                  (  0.0000000  0.0000000  1.0000000 )


      isym = 30     inv. 180 deg rotation - cart. axis [1,-1,0]  

 cryst.   s(30) = (     0          1          0      )
                  (     1          0          0      )
                  (     0          0          1      )

 cart.    s(30) = (  0.0000000  0.9999999  0.0000000 )
                  (  1.0000001  0.0000000  0.0000000 )
                  (  0.0000000  0.0000000  1.0000000 )


      isym = 31     inv.  90 deg rotation - cart. axis [0,0,-1]  

 cryst.   s(31) = (     0          1          0      )
                  (    -1          0          0      )
                  (     0          0         -1      )

 cart.    s(31) = (  0.0000000 -0.9999999  0.0000000 )
                  (  1.0000001  0.0000000  0.0000000 )
                  (  0.0000000  0.0000000 -1.0000000 )


      isym = 32     inv.  90 deg rotation - cart. axis [0,0,1]   

 cryst.   s(32) = (     0         -1          0      )
                  (     1          0          0      )
                  (     0          0         -1      )

 cart.    s(32) = (  0.0000000  0.9999999  0.0000000 )
                  ( -1.0000001  0.0000000  0.0000000 )
                  (  0.0000000  0.0000000 -1.0000000 )


      isym = 33     inv. 180 deg rotation - cart. axis [1,0,1]   

 cryst.   s(33) = (     0          0         -1      )
                  (     0          1          0      )
                  (    -1          0          0      )

 cart.    s(33) = (  0.0000000  0.0000000 -0.9999999 )
                  (  0.0000000  1.0000000  0.0000000 )
                  ( -1.0000001  0.0000000  0.0000000 )


      isym = 34     inv. 180 deg rotation - cart. axis [-1,0,1]  

 cryst.   s(34) = (     0          0          1      )
                  (     0          1          0      )
                  (     1          0          0      )

 cart.    s(34) = (  0.0000000  0.0000000  0.9999999 )
                  (  0.0000000  1.0000000  0.0000000 )
                  (  1.0000001  0.0000000  0.0000000 )


      isym = 35     inv.  90 deg rotation - cart. axis [0,1,0]   

 cryst.   s(35) = (     0          0          1      )
                  (     0         -1          0      )
                  (    -1          0          0      )

 cart.    s(35) = (  0.0000000  0.0000000 -0.9999999 )
                  (  0.0000000 -1.0000000  0.0000000 )
                  (  1.0000001  0.0000000  0.0000000 )


      isym = 36     inv.  90 deg rotation - cart. axis [0,-1,0]  

 cryst.   s(36) = (     0          0         -1      )
                  (     0         -1          0      )
                  (     1          0          0      )

 cart.    s(36) = (  0.0000000  0.0000000  0.9999999 )
                  (  0.0000000 -1.0000000  0.0000000 )
                  ( -1.0000001  0.0000000  0.0000000 )


      isym = 37     inv. 180 deg rotation - cart. axis [0,1,1]   

 cryst.   s(37) = (     1          0          0      )
                  (     0          0         -1      )
                  (     0         -1          0      )

 cart.    s(37) = (  1.0000000  0.0000000  0.0000000 )
                  (  0.0000000  0.0000000 -1.0000000 )
                  (  0.0000000 -1.0000000  0.0000000 )


      isym = 38     inv. 180 deg rotation - cart. axis [0,1,-1]  

 cryst.   s(38) = (     1          0          0      )
                  (     0          0          1      )
                  (     0          1          0      )

 cart.    s(38) = (  1.0000000  0.0000000  0.0000000 )
                  (  0.0000000  0.0000000  1.0000000 )
                  (  0.0000000  1.0000000  0.0000000 )


      isym = 39     inv.  90 deg rotation - cart. axis [-1,0,0]  

 cryst.   s(39) = (    -1          0          0      )
                  (     0          0          1      )
                  (     0         -1          0      )

 cart.    s(39) = ( -1.0000000  0.0000000  0.0000000 )
                  (  0.0000000  0.0000000 -1.0000000 )
                  (  0.0000000  1.0000000  0.0000000 )


      isym = 40     inv.  90 deg rotation - cart. axis [1,0,0]   

 cryst.   s(40) = (    -1          0          0      )
                  (     0          0         -1      )
                  (     0          1          0      )

 cart.    s(40) = ( -1.0000000  0.0000000  0.0000000 )
                  (  0.0000000  0.0000000  1.0000000 )
                  (  0.0000000 -1.0000000  0.0000000 )


      isym = 41     inv. 120 deg rotation - cart. axis [-1,-1,-1]

 cryst.   s(41) = (     0          0         -1      )
                  (    -1          0          0      )
                  (     0         -1          0      )

 cart.    s(41) = (  0.0000000 -0.9999999  0.0000000 )
                  (  0.0000000  0.0000000 -1.0000000 )
                  ( -1.0000001  0.0000000  0.0000000 )


      isym = 42     inv. 120 deg rotation - cart. axis [-1,1,1]  

 cryst.   s(42) = (     0          0          1      )
                  (     1          0          0      )
                  (     0         -1          0      )

 cart.    s(42) = (  0.0000000  0.9999999  0.0000000 )
                  (  0.0000000  0.0000000 -1.0000000 )
                  (  1.0000001  0.0000000  0.0000000 )


      isym = 43     inv. 120 deg rotation - cart. axis [1,1,-1]  

 cryst.   s(43) = (     0          0          1      )
                  (    -1          0          0      )
                  (     0          1          0      )

 cart.    s(43) = (  0.0000000 -0.9999999  0.0000000 )
                  (  0.0000000  0.0000000  1.0000000 )
                  (  1.0000001  0.0000000  0.0000000 )


      isym = 44     inv. 120 deg rotation - cart. axis [1,-1,1]  

 cryst.   s(44) = (     0          0         -1      )
                  (     1          0          0      )
                  (     0          1          0      )

 cart.    s(44) = (  0.0000000  0.9999999  0.0000000 )
                  (  0.0000000  0.0000000  1.0000000 )
                  ( -1.0000001  0.0000000  0.0000000 )


      isym = 45     inv. 120 deg rotation - cart. axis [1,1,1]   

 cryst.   s(45) = (     0         -1          0      )
                  (     0          0         -1      )
                  (    -1          0          0      )

 cart.    s(45) = (  0.0000000  0.0000000 -0.9999999 )
                  ( -1.0000001  0.0000000  0.0000000 )
                  (  0.0000000 -1.0000000  0.0000000 )


      isym = 46     inv. 120 deg rotation - cart. axis [-1,1,-1] 

 cryst.   s(46) = (     0          1          0      )
                  (     0          0          1      )
                  (    -1          0          0      )

 cart.    s(46) = (  0.0000000  0.0000000 -0.9999999 )
                  (  1.0000001  0.0000000  0.0000000 )
                  (  0.0000000  1.0000000  0.0000000 )


      isym = 47     inv. 120 deg rotation - cart. axis [1,-1,-1] 

 cryst.   s(47) = (     0          1          0      )
                  (     0          0         -1      )
                  (     1          0          0      )

 cart.    s(47) = (  0.0000000  0.0000000  0.9999999 )
                  (  1.0000001  0.0000000  0.0000000 )
                  (  0.0000000 -1.0000000  0.0000000 )


      isym = 48     inv. 120 deg rotation - cart. axis [-1,-1,1] 

 cryst.   s(48) = (     0         -1          0      )
                  (     0          0          1      )
                  (     1          0          0      )

 cart.    s(48) = (  0.0000000  0.0000000  0.9999999 )
                  ( -1.0000001  0.0000000  0.0000000 )
                  (  0.0000000  1.0000000  0.0000000 )


   Cartesian axes

     site n.     atom                  positions (alat units)
         1           U   tau(   1) = (   0.0000000   0.0000000   0.0000000  )
         2           U   tau(   2) = (   0.5000000   0.5000000   0.0000000  )
         3           U   tau(   3) = (   0.5000000   0.0000000   0.5000000  )
         4           U   tau(   4) = (   0.0000000   0.5000000   0.5000000  )

   Crystallographic axes

     site n.     atom                  positions (cryst. coord.)
         1           U   tau(   1) = (  0.0000000  0.0000000  0.0000000  )
         2           U   tau(   2) = (  0.5000000  0.5000000  0.0000000  )
         3           U   tau(   3) = (  0.5000000  0.0000000  0.5000000  )
         4           U   tau(   4) = (  0.0000000  0.5000000  0.5000000  )

     number of k points=    20  Marzari-Vanderbilt smearing, width (Ry)=  0.0500
                       cart. coord. in units 2pi/alat
        k(    1) = (   0.0000000   0.0000000   0.0000000), wk =   0.0046296
        k(    2) = (   0.0000000   0.0000000   0.1666667), wk =   0.0277778
        k(    3) = (   0.0000000   0.0000000   0.3333333), wk =   0.0277778
        k(    4) = (   0.0000000   0.0000000  -0.5000000), wk =   0.0138889
        k(    5) = (   0.0000000   0.1666667   0.1666667), wk =   0.0555556
        k(    6) = (   0.0000000   0.1666667   0.3333333), wk =   0.1111111
        k(    7) = (   0.0000000   0.1666667  -0.5000000), wk =   0.0555556
        k(    8) = (   0.0000000   0.3333333   0.3333333), wk =   0.0555556
        k(    9) = (   0.0000000   0.3333333  -0.5000000), wk =   0.0555556
        k(   10) = (   0.0000000  -0.5000000  -0.5000000), wk =   0.0138889
        k(   11) = (   0.1666667   0.1666667   0.1666667), wk =   0.0370370
        k(   12) = (   0.1666667   0.1666667   0.3333333), wk =   0.1111111
        k(   13) = (   0.1666667   0.1666667  -0.5000000), wk =   0.0555556
        k(   14) = (   0.1666667   0.3333333   0.3333333), wk =   0.1111111
        k(   15) = (   0.1666667   0.3333333  -0.5000000), wk =   0.1111111
        k(   16) = (   0.1666667  -0.5000000  -0.5000000), wk =   0.0277778
        k(   17) = (   0.3333333   0.3333333   0.3333333), wk =   0.0370370
        k(   18) = (   0.3333333   0.3333333  -0.5000000), wk =   0.0555556
        k(   19) = (   0.3333333  -0.5000000  -0.5000000), wk =   0.0277778
        k(   20) = (  -0.5000000  -0.5000000  -0.5000000), wk =   0.0046296

                       cryst. coord.
        k(    1) = (   0.0000000   0.0000000   0.0000000), wk =   0.0046296
        k(    2) = (   0.0000000   0.0000000   0.1666667), wk =   0.0277778
        k(    3) = (   0.0000000   0.0000000   0.3333333), wk =   0.0277778
        k(    4) = (   0.0000000   0.0000000  -0.5000000), wk =   0.0138889
        k(    5) = (   0.0000000   0.1666667   0.1666667), wk =   0.0555556
        k(    6) = (   0.0000000   0.1666667   0.3333333), wk =   0.1111111
        k(    7) = (   0.0000000   0.1666667  -0.5000000), wk =   0.0555556
        k(    8) = (   0.0000000   0.3333333   0.3333333), wk =   0.0555556
        k(    9) = (   0.0000000   0.3333333  -0.5000000), wk =   0.0555556
        k(   10) = (   0.0000000  -0.5000000  -0.5000000), wk =   0.0138889
        k(   11) = (   0.1666667   0.1666667   0.1666667), wk =   0.0370370
        k(   12) = (   0.1666667   0.1666667   0.3333333), wk =   0.1111111
        k(   13) = (   0.1666667   0.1666667  -0.5000000), wk =   0.0555556
        k(   14) = (   0.1666667   0.3333333   0.3333333), wk =   0.1111111
        k(   15) = (   0.1666667   0.3333333  -0.5000000), wk =   0.1111111
        k(   16) = (   0.1666667  -0.5000000  -0.5000000), wk =   0.0277778
        k(   17) = (   0.3333333   0.3333333   0.3333333), wk =   0.0370370
        k(   18) = (   0.3333333   0.3333333  -0.5000000), wk =   0.0555556
        k(   19) = (   0.3333333  -0.5000000  -0.5000000), wk =   0.0277778
        k(   20) = (  -0.5000000  -0.5000000  -0.5000000), wk =   0.0046296

     Dense  grid:   454951 G-vectors     FFT dimensions: (  96,  96,  96)

     Smooth grid:   160707 G-vectors     FFT dimensions: (  72,  72,  72)

     Dynamical RAM for                 wfc:       0.31 MB

     Dynamical RAM for     wfc (w. buffer):      12.57 MB

     Dynamical RAM for           str. fact:       0.22 MB

     Dynamical RAM for           local pot:       0.00 MB

     Dynamical RAM for          nlocal pot:       1.23 MB

     Dynamical RAM for                qrad:       6.88 MB

     Dynamical RAM for          rho,v,vnew:       2.57 MB

     Dynamical RAM for               rhoin:       0.86 MB

     Dynamical RAM for            rho*nmix:       6.94 MB

     Dynamical RAM for           G-vectors:       0.85 MB

     Dynamical RAM for          h,s,v(r/c):       0.19 MB

     Dynamical RAM for          <psi|beta>:       0.06 MB

     Dynamical RAM for                 psi:       0.61 MB

     Dynamical RAM for                hpsi:       0.61 MB

     Dynamical RAM for                spsi:       0.61 MB

     Dynamical RAM for      wfcinit/wfcrot:       0.64 MB

     Dynamical RAM for           addusdens:     121.48 MB

     Dynamical RAM for          addusforce:     122.88 MB

     Dynamical RAM for         addusstress:     126.58 MB

     Estimated static dynamical RAM per process >      26.87 MB

     Estimated max dynamical RAM per process >     160.40 MB

     Estimated total dynamical RAM >       5.01 GB
     Generating pointlists ...
     new r_m :   0.2917 (alat units)  2.4436 (a.u.) for type    1

     Initial potential from superposition of free atoms

     starting charge   55.98204, renormalised to   56.00000
     Starting wfcs are random

     total cpu time spent up to now is        6.7 secs

     Self-consistent Calculation

     iteration #  1     ecut=   160.00 Ry     beta= 0.50
     Davidson diagonalization with overlap

---- Real-time Memory Report at c_bands before calling an iterative solver
           160 MiB given to the printing process from OS
             0 MiB allocation reported by mallinfo(arena+hblkhd)
         31488 MiB available memory on the node where the printing process lives
------------------
     ethr =  1.00E-02,  avg # of iterations = 11.5

     total cpu time spent up to now is       37.9 secs

     total energy              =    -516.17195023 Ry
     estimated scf accuracy    <       1.77856983 Ry

     total magnetization       =     2.29 Bohr mag/cell
     absolute magnetization    =     2.29 Bohr mag/cell

     iteration #  2     ecut=   160.00 Ry     beta= 0.50
     Davidson diagonalization with overlap

---- Real-time Memory Report at c_bands before calling an iterative solver
           177 MiB given to the printing process from OS
             0 MiB allocation reported by mallinfo(arena+hblkhd)
         31207 MiB available memory on the node where the printing process lives
------------------
     ethr =  3.18E-03,  avg # of iterations =  7.1

     total cpu time spent up to now is       57.2 secs

     total energy              =    -517.15193493 Ry
     estimated scf accuracy    <       1.56531774 Ry

     total magnetization       =     2.56 Bohr mag/cell
     absolute magnetization    =     2.56 Bohr mag/cell

     iteration #  3     ecut=   160.00 Ry     beta= 0.50
     Davidson diagonalization with overlap

---- Real-time Memory Report at c_bands before calling an iterative solver
           178 MiB given to the printing process from OS
             0 MiB allocation reported by mallinfo(arena+hblkhd)
         31200 MiB available memory on the node where the printing process lives
------------------
     ethr =  2.80E-03,  avg # of iterations =  2.1

     total cpu time spent up to now is       68.6 secs

     total energy              =    -517.31616618 Ry
     estimated scf accuracy    <       0.13932334 Ry

     total magnetization       =     1.95 Bohr mag/cell
     absolute magnetization    =     1.96 Bohr mag/cell

     iteration #  4     ecut=   160.00 Ry     beta= 0.50
     Davidson diagonalization with overlap

---- Real-time Memory Report at c_bands before calling an iterative solver
           178 MiB given to the printing process from OS
             0 MiB allocation reported by mallinfo(arena+hblkhd)
         31199 MiB available memory on the node where the printing process lives
------------------
     c_bands:  2 eigenvalues not converged
     c_bands:  2 eigenvalues not converged
     c_bands:  3 eigenvalues not converged
     c_bands:  1 eigenvalues not converged
     c_bands:  2 eigenvalues not converged
     c_bands:  3 eigenvalues not converged
     c_bands:  2 eigenvalues not converged
     c_bands:  2 eigenvalues not converged
     c_bands:  3 eigenvalues not converged
     c_bands:  1 eigenvalues not converged
     c_bands:  2 eigenvalues not converged
     c_bands:  5 eigenvalues not converged
     c_bands:  2 eigenvalues not converged
     c_bands:  3 eigenvalues not converged
     c_bands:  1 eigenvalues not converged
     c_bands:  1 eigenvalues not converged
     c_bands:  1 eigenvalues not converged
     c_bands:  1 eigenvalues not converged
     c_bands:  4 eigenvalues not converged
     c_bands:  1 eigenvalues not converged
     c_bands:  1 eigenvalues not converged
     c_bands:  4 eigenvalues not converged
     c_bands:  1 eigenvalues not converged
     c_bands:  1 eigenvalues not converged
     c_bands:  1 eigenvalues not converged
     c_bands:  2 eigenvalues not converged
     c_bands:  5 eigenvalues not converged
     c_bands:  4 eigenvalues not converged
     c_bands:  5 eigenvalues not converged
     ethr =  2.49E-04,  avg # of iterations = 20.6

     total cpu time spent up to now is       96.3 secs

     total energy              =    -517.43484467 Ry
     estimated scf accuracy    <       0.92740724 Ry

     total magnetization       =     1.98 Bohr mag/cell
     absolute magnetization    =     1.99 Bohr mag/cell

     iteration #  5     ecut=   160.00 Ry     beta= 0.50
     Davidson diagonalization with overlap

---- Real-time Memory Report at c_bands before calling an iterative solver
           178 MiB given to the printing process from OS
             0 MiB allocation reported by mallinfo(arena+hblkhd)
         31191 MiB available memory on the node where the printing process lives
------------------
     c_bands:  1 eigenvalues not converged
     c_bands:  2 eigenvalues not converged
     c_bands:  1 eigenvalues not converged
     c_bands:  1 eigenvalues not converged
     c_bands:  1 eigenvalues not converged
     c_bands:  1 eigenvalues not converged
     c_bands:  1 eigenvalues not converged
     c_bands:  1 eigenvalues not converged
     ethr =  2.49E-04,  avg # of iterations = 14.7

     total cpu time spent up to now is      113.9 secs

     total energy              =    -517.47412483 Ry
     estimated scf accuracy    <       0.01786398 Ry

     total magnetization       =     1.93 Bohr mag/cell
     absolute magnetization    =     1.94 Bohr mag/cell

     iteration #  6     ecut=   160.00 Ry     beta= 0.50
     Davidson diagonalization with overlap

---- Real-time Memory Report at c_bands before calling an iterative solver
           179 MiB given to the printing process from OS
             0 MiB allocation reported by mallinfo(arena+hblkhd)
         31186 MiB available memory on the node where the printing process lives
------------------
     c_bands:  2 eigenvalues not converged
     c_bands:  1 eigenvalues not converged
     c_bands:  1 eigenvalues not converged
     c_bands:  2 eigenvalues not converged
     c_bands:  2 eigenvalues not converged
     c_bands:  2 eigenvalues not converged
     c_bands:  1 eigenvalues not converged
     c_bands:  2 eigenvalues not converged
     c_bands:  2 eigenvalues not converged
     c_bands:  2 eigenvalues not converged
     c_bands:  1 eigenvalues not converged
     c_bands:  1 eigenvalues not converged
     c_bands:  3 eigenvalues not converged
     c_bands:  3 eigenvalues not converged
     c_bands:  2 eigenvalues not converged
     c_bands:  2 eigenvalues not converged
     c_bands:  5 eigenvalues not converged
     c_bands:  3 eigenvalues not converged
     c_bands:  4 eigenvalues not converged
     c_bands:  2 eigenvalues not converged
     c_bands:  4 eigenvalues not converged
     c_bands:  2 eigenvalues not converged
     c_bands:  2 eigenvalues not converged
     c_bands:  1 eigenvalues not converged
     c_bands:  1 eigenvalues not converged
     c_bands:  1 eigenvalues not converged
     c_bands:  4 eigenvalues not converged
     c_bands:  4 eigenvalues not converged
     c_bands:  3 eigenvalues not converged
     c_bands:  1 eigenvalues not converged
     ethr =  3.19E-05,  avg # of iterations = 20.0

     total cpu time spent up to now is      143.0 secs

     total energy              =    -517.48911486 Ry
     estimated scf accuracy    <       0.08065469 Ry

     total magnetization       =     1.83 Bohr mag/cell
     absolute magnetization    =     1.85 Bohr mag/cell

     iteration #  7     ecut=   160.00 Ry     beta= 0.50
     Davidson diagonalization with overlap

---- Real-time Memory Report at c_bands before calling an iterative solver
           179 MiB given to the printing process from OS
             0 MiB allocation reported by mallinfo(arena+hblkhd)
         31166 MiB available memory on the node where the printing process lives
------------------
     c_bands:  1 eigenvalues not converged
     c_bands:  1 eigenvalues not converged
     c_bands:  2 eigenvalues not converged
     c_bands:  1 eigenvalues not converged
     c_bands:  3 eigenvalues not converged
     ethr =  3.19E-05,  avg # of iterations =  9.2

     total cpu time spent up to now is      157.1 secs

     total energy              =    -517.49174653 Ry
     estimated scf accuracy    <       0.01978412 Ry

     total magnetization       =     1.69 Bohr mag/cell
     absolute magnetization    =     1.71 Bohr mag/cell

     iteration #  8     ecut=   160.00 Ry     beta= 0.50
     Davidson diagonalization with overlap

---- Real-time Memory Report at c_bands before calling an iterative solver
           179 MiB given to the printing process from OS
             0 MiB allocation reported by mallinfo(arena+hblkhd)
         31153 MiB available memory on the node where the printing process lives
------------------
     c_bands:  2 eigenvalues not converged
     c_bands:  2 eigenvalues not converged
     ethr =  3.19E-05,  avg # of iterations =  4.0

     total cpu time spent up to now is      168.1 secs

     total energy              =    -517.49240137 Ry
     estimated scf accuracy    <       0.00563827 Ry

     total magnetization       =     1.62 Bohr mag/cell
     absolute magnetization    =     1.64 Bohr mag/cell

     iteration #  9     ecut=   160.00 Ry     beta= 0.50
     Davidson diagonalization with overlap

---- Real-time Memory Report at c_bands before calling an iterative solver
           180 MiB given to the printing process from OS
             0 MiB allocation reported by mallinfo(arena+hblkhd)
         31148 MiB available memory on the node where the printing process lives
------------------
     c_bands:  4 eigenvalues not converged
     c_bands:  1 eigenvalues not converged
     c_bands:  1 eigenvalues not converged
     c_bands:  1 eigenvalues not converged
     c_bands:  2 eigenvalues not converged
     c_bands:  1 eigenvalues not converged
     c_bands:  1 eigenvalues not converged
     c_bands:  3 eigenvalues not converged
     c_bands:  1 eigenvalues not converged
     c_bands:  2 eigenvalues not converged
     c_bands:  1 eigenvalues not converged
     c_bands:  2 eigenvalues not converged
     c_bands:  3 eigenvalues not converged
     c_bands:  1 eigenvalues not converged
     c_bands:  1 eigenvalues not converged
     ethr =  1.01E-05,  avg # of iterations = 15.7

     total cpu time spent up to now is      188.4 secs

     total energy              =    -517.49540432 Ry
     estimated scf accuracy    <       0.03270547 Ry

     total magnetization       =     1.54 Bohr mag/cell
     absolute magnetization    =     1.57 Bohr mag/cell

     iteration # 10     ecut=   160.00 Ry     beta= 0.50
     Davidson diagonalization with overlap

---- Real-time Memory Report at c_bands before calling an iterative solver
           180 MiB given to the printing process from OS
             0 MiB allocation reported by mallinfo(arena+hblkhd)
         31142 MiB available memory on the node where the printing process lives
------------------
     ethr =  1.01E-05,  avg # of iterations =  2.4

     total cpu time spent up to now is      198.6 secs

     total energy              =    -517.49405404 Ry
     estimated scf accuracy    <       0.02208678 Ry

     total magnetization       =     1.53 Bohr mag/cell
     absolute magnetization    =     1.56 Bohr mag/cell

     iteration # 11     ecut=   160.00 Ry     beta= 0.50
     Davidson diagonalization with overlap

---- Real-time Memory Report at c_bands before calling an iterative solver
           180 MiB given to the printing process from OS
             0 MiB allocation reported by mallinfo(arena+hblkhd)
         31144 MiB available memory on the node where the printing process lives
------------------
     c_bands:  2 eigenvalues not converged
     c_bands:  1 eigenvalues not converged
     ethr =  1.01E-05,  avg # of iterations =  9.8

     total cpu time spent up to now is      213.2 secs

     total energy              =    -517.49484242 Ry
     estimated scf accuracy    <       0.00061586 Ry

     total magnetization       =     1.51 Bohr mag/cell
     absolute magnetization    =     1.54 Bohr mag/cell

     iteration # 12     ecut=   160.00 Ry     beta= 0.50
     Davidson diagonalization with overlap

---- Real-time Memory Report at c_bands before calling an iterative solver
           181 MiB given to the printing process from OS
             0 MiB allocation reported by mallinfo(arena+hblkhd)
         31145 MiB available memory on the node where the printing process lives
------------------
     c_bands:  1 eigenvalues not converged
     c_bands:  3 eigenvalues not converged
     c_bands:  1 eigenvalues not converged
     c_bands:  1 eigenvalues not converged
     c_bands:  1 eigenvalues not converged
     c_bands:  3 eigenvalues not converged
     c_bands:  1 eigenvalues not converged
     c_bands:  5 eigenvalues not converged
     c_bands:  4 eigenvalues not converged
     c_bands:  2 eigenvalues not converged
     c_bands:  5 eigenvalues not converged
     c_bands:  2 eigenvalues not converged
     c_bands:  1 eigenvalues not converged
     c_bands:  3 eigenvalues not converged
     c_bands:  3 eigenvalues not converged
     c_bands:  1 eigenvalues not converged
     c_bands:  1 eigenvalues not converged
     c_bands:  3 eigenvalues not converged
     c_bands:  1 eigenvalues not converged
     c_bands:  2 eigenvalues not converged
     c_bands:  4 eigenvalues not converged
     c_bands:  2 eigenvalues not converged
     c_bands:  4 eigenvalues not converged
     c_bands:  4 eigenvalues not converged
     c_bands:  1 eigenvalues not converged
     c_bands:  1 eigenvalues not converged
     c_bands:  2 eigenvalues not converged
     c_bands:  1 eigenvalues not converged
     c_bands:  2 eigenvalues not converged
     c_bands:  3 eigenvalues not converged
     c_bands:  1 eigenvalues not converged
     c_bands:  1 eigenvalues not converged
     ethr =  1.10E-06,  avg # of iterations = 19.1

     total cpu time spent up to now is      240.5 secs

     total energy              =    -517.49564348 Ry
     estimated scf accuracy    <       0.01279839 Ry

     total magnetization       =     1.45 Bohr mag/cell
     absolute magnetization    =     1.48 Bohr mag/cell

     iteration # 13     ecut=   160.00 Ry     beta= 0.50
     Davidson diagonalization with overlap

---- Real-time Memory Report at c_bands before calling an iterative solver
           181 MiB given to the printing process from OS
             0 MiB allocation reported by mallinfo(arena+hblkhd)
         31136 MiB available memory on the node where the printing process lives
------------------
     c_bands:  1 eigenvalues not converged
     c_bands:  2 eigenvalues not converged
     c_bands:  3 eigenvalues not converged
     c_bands:  1 eigenvalues not converged
     c_bands:  1 eigenvalues not converged
     c_bands:  2 eigenvalues not converged
     c_bands:  1 eigenvalues not converged
     c_bands:  4 eigenvalues not converged
     c_bands:  3 eigenvalues not converged
     c_bands:  2 eigenvalues not converged
     ethr =  1.10E-06,  avg # of iterations =  7.5

     total cpu time spent up to now is      252.8 secs

     total energy              =    -517.49521235 Ry
     estimated scf accuracy    <       0.00984258 Ry

     total magnetization       =     1.40 Bohr mag/cell
     absolute magnetization    =     1.43 Bohr mag/cell

     iteration # 14     ecut=   160.00 Ry     beta= 0.50
     Davidson diagonalization with overlap

---- Real-time Memory Report at c_bands before calling an iterative solver
           181 MiB given to the printing process from OS
             0 MiB allocation reported by mallinfo(arena+hblkhd)
         31137 MiB available memory on the node where the printing process lives
------------------
     c_bands:  1 eigenvalues not converged
     c_bands:  2 eigenvalues not converged
     c_bands:  1 eigenvalues not converged
     c_bands:  1 eigenvalues not converged
     c_bands:  2 eigenvalues not converged
     c_bands:  1 eigenvalues not converged
     c_bands:  3 eigenvalues not converged
     ethr =  1.10E-06,  avg # of iterations = 14.3

     total cpu time spent up to now is      271.7 secs

     total energy              =    -517.49563841 Ry
     estimated scf accuracy    <       0.00045549 Ry

     total magnetization       =     1.34 Bohr mag/cell
     absolute magnetization    =     1.37 Bohr mag/cell

     iteration # 15     ecut=   160.00 Ry     beta= 0.50
     Davidson diagonalization with overlap

---- Real-time Memory Report at c_bands before calling an iterative solver
           181 MiB given to the printing process from OS
             0 MiB allocation reported by mallinfo(arena+hblkhd)
         31142 MiB available memory on the node where the printing process lives
------------------
     c_bands:  2 eigenvalues not converged
     c_bands:  4 eigenvalues not converged
     c_bands:  1 eigenvalues not converged
     c_bands:  2 eigenvalues not converged
     c_bands:  4 eigenvalues not converged
     c_bands:  3 eigenvalues not converged
     ethr =  8.13E-07,  avg # of iterations =  6.0

     total cpu time spent up to now is      283.5 secs

     total energy              =    -517.49575543 Ry
     estimated scf accuracy    <       0.00164486 Ry

     total magnetization       =     1.31 Bohr mag/cell
     absolute magnetization    =     1.33 Bohr mag/cell

     iteration # 16     ecut=   160.00 Ry     beta= 0.50
     Davidson diagonalization with overlap

---- Real-time Memory Report at c_bands before calling an iterative solver
           181 MiB given to the printing process from OS
             0 MiB allocation reported by mallinfo(arena+hblkhd)
         31144 MiB available memory on the node where the printing process lives
------------------
     c_bands:  2 eigenvalues not converged
     c_bands:  4 eigenvalues not converged
     c_bands:  1 eigenvalues not converged
     c_bands:  1 eigenvalues not converged
     c_bands:  1 eigenvalues not converged
     c_bands:  2 eigenvalues not converged
     c_bands:  3 eigenvalues not converged
     c_bands:  2 eigenvalues not converged
     ethr =  8.13E-07,  avg # of iterations =  8.5

     total cpu time spent up to now is      296.3 secs

     total energy              =    -517.49573985 Ry
     estimated scf accuracy    <       0.00288186 Ry

     total magnetization       =     1.22 Bohr mag/cell
     absolute magnetization    =     1.25 Bohr mag/cell

     iteration # 17     ecut=   160.00 Ry     beta= 0.50
     Davidson diagonalization with overlap

---- Real-time Memory Report at c_bands before calling an iterative solver
           181 MiB given to the printing process from OS
             0 MiB allocation reported by mallinfo(arena+hblkhd)
         31143 MiB available memory on the node where the printing process lives
------------------
     c_bands:  2 eigenvalues not converged
     c_bands:  2 eigenvalues not converged
     c_bands:  1 eigenvalues not converged
     c_bands:  1 eigenvalues not converged
     c_bands:  4 eigenvalues not converged
     ethr =  8.13E-07,  avg # of iterations =  4.2

     total cpu time spent up to now is      307.0 secs

     total energy              =    -517.49549436 Ry
     estimated scf accuracy    <       0.00222728 Ry

     total magnetization       =     1.18 Bohr mag/cell
     absolute magnetization    =     1.21 Bohr mag/cell

     iteration # 18     ecut=   160.00 Ry     beta= 0.50
     Davidson diagonalization with overlap

---- Real-time Memory Report at c_bands before calling an iterative solver
           181 MiB given to the printing process from OS
             0 MiB allocation reported by mallinfo(arena+hblkhd)
         31142 MiB available memory on the node where the printing process lives
------------------
     c_bands:  1 eigenvalues not converged
     c_bands:  1 eigenvalues not converged
     c_bands:  1 eigenvalues not converged
     c_bands:  1 eigenvalues not converged
     c_bands:  2 eigenvalues not converged
     c_bands:  1 eigenvalues not converged
     c_bands:  3 eigenvalues not converged
     ethr =  8.13E-07,  avg # of iterations = 13.4

     total cpu time spent up to now is      325.0 secs

     total energy              =    -517.49576597 Ry
     estimated scf accuracy    <       0.00050246 Ry

     total magnetization       =     1.11 Bohr mag/cell
     absolute magnetization    =     1.14 Bohr mag/cell

     iteration # 19     ecut=   160.00 Ry     beta= 0.50
     Davidson diagonalization with overlap

---- Real-time Memory Report at c_bands before calling an iterative solver
           181 MiB given to the printing process from OS
             0 MiB allocation reported by mallinfo(arena+hblkhd)
         31142 MiB available memory on the node where the printing process lives
------------------
     c_bands:  2 eigenvalues not converged
     c_bands:  3 eigenvalues not converged
     ethr =  8.13E-07,  avg # of iterations =  3.1

     total cpu time spent up to now is      335.6 secs

     total energy              =    -517.49578320 Ry
     estimated scf accuracy    <       0.00096147 Ry

     total magnetization       =     1.09 Bohr mag/cell
     absolute magnetization    =     1.11 Bohr mag/cell

     iteration # 20     ecut=   160.00 Ry     beta= 0.50
     Davidson diagonalization with overlap

---- Real-time Memory Report at c_bands before calling an iterative solver
           181 MiB given to the printing process from OS
             0 MiB allocation reported by mallinfo(arena+hblkhd)
         31144 MiB available memory on the node where the printing process lives
------------------
     c_bands:  1 eigenvalues not converged
     c_bands:  3 eigenvalues not converged
     ethr =  8.13E-07,  avg # of iterations =  2.0

     total cpu time spent up to now is      345.8 secs

     total energy              =    -517.49572815 Ry
     estimated scf accuracy    <       0.00105002 Ry

     total magnetization       =     1.02 Bohr mag/cell
     absolute magnetization    =     1.05 Bohr mag/cell

     iteration # 21     ecut=   160.00 Ry     beta= 0.50
     Davidson diagonalization with overlap

---- Real-time Memory Report at c_bands before calling an iterative solver
           181 MiB given to the printing process from OS
             0 MiB allocation reported by mallinfo(arena+hblkhd)
         31146 MiB available memory on the node where the printing process lives
------------------
     c_bands:  2 eigenvalues not converged
     ethr =  8.13E-07,  avg # of iterations =  1.5

     total cpu time spent up to now is      355.7 secs

     total energy              =    -517.49572668 Ry
     estimated scf accuracy    <       0.00043145 Ry

     total magnetization       =     1.01 Bohr mag/cell
     absolute magnetization    =     1.04 Bohr mag/cell

     iteration # 22     ecut=   160.00 Ry     beta= 0.50
     Davidson diagonalization with overlap

---- Real-time Memory Report at c_bands before calling an iterative solver
           181 MiB given to the printing process from OS
             0 MiB allocation reported by mallinfo(arena+hblkhd)
         31117 MiB available memory on the node where the printing process lives
------------------
     c_bands:  2 eigenvalues not converged
     ethr =  7.70E-07,  avg # of iterations =  1.5

     total cpu time spent up to now is      365.8 secs

     total energy              =    -517.49573502 Ry
     estimated scf accuracy    <       0.00024426 Ry

     total magnetization       =     0.99 Bohr mag/cell
     absolute magnetization    =     1.02 Bohr mag/cell

     iteration # 23     ecut=   160.00 Ry     beta= 0.50
     Davidson diagonalization with overlap

---- Real-time Memory Report at c_bands before calling an iterative solver
           181 MiB given to the printing process from OS
             0 MiB allocation reported by mallinfo(arena+hblkhd)
         31137 MiB available memory on the node where the printing process lives
------------------
     c_bands:  1 eigenvalues not converged
     c_bands:  2 eigenvalues not converged
     ethr =  4.36E-07,  avg # of iterations =  3.1

     total cpu time spent up to now is      376.2 secs

     total energy              =    -517.49573198 Ry
     estimated scf accuracy    <       0.00021117 Ry

     total magnetization       =     0.98 Bohr mag/cell
     absolute magnetization    =     1.01 Bohr mag/cell

     iteration # 24     ecut=   160.00 Ry     beta= 0.50
     Davidson diagonalization with overlap

---- Real-time Memory Report at c_bands before calling an iterative solver
           181 MiB given to the printing process from OS
             0 MiB allocation reported by mallinfo(arena+hblkhd)
         31139 MiB available memory on the node where the printing process lives
------------------
     c_bands:  1 eigenvalues not converged
     ethr =  3.77E-07,  avg # of iterations =  6.3

     total cpu time spent up to now is      387.8 secs

     total energy              =    -517.49574418 Ry
     estimated scf accuracy    <       0.00007554 Ry

     total magnetization       =     0.96 Bohr mag/cell
     absolute magnetization    =     0.98 Bohr mag/cell

     iteration # 25     ecut=   160.00 Ry     beta= 0.50
     Davidson diagonalization with overlap

---- Real-time Memory Report at c_bands before calling an iterative solver
           181 MiB given to the printing process from OS
             0 MiB allocation reported by mallinfo(arena+hblkhd)
         31140 MiB available memory on the node where the printing process lives
------------------
     c_bands:  1 eigenvalues not converged
     c_bands:  1 eigenvalues not converged
     c_bands:  2 eigenvalues not converged
     c_bands:  2 eigenvalues not converged
     c_bands:  1 eigenvalues not converged
     c_bands:  1 eigenvalues not converged
     c_bands:  1 eigenvalues not converged
     c_bands:  4 eigenvalues not converged
     c_bands:  1 eigenvalues not converged
     ethr =  1.35E-07,  avg # of iterations = 12.0

     total cpu time spent up to now is      403.6 secs

     total energy              =    -517.49576531 Ry
     estimated scf accuracy    <       0.00000151 Ry

     total magnetization       =     0.95 Bohr mag/cell
     absolute magnetization    =     0.97 Bohr mag/cell

     iteration # 26     ecut=   160.00 Ry     beta= 0.50
     Davidson diagonalization with overlap

---- Real-time Memory Report at c_bands before calling an iterative solver
           181 MiB given to the printing process from OS
             0 MiB allocation reported by mallinfo(arena+hblkhd)
         31140 MiB available memory on the node where the printing process lives
------------------
     c_bands:  3 eigenvalues not converged
     c_bands:  5 eigenvalues not converged
     c_bands:  1 eigenvalues not converged
     c_bands:  4 eigenvalues not converged
     c_bands:  3 eigenvalues not converged
     c_bands:  1 eigenvalues not converged
     c_bands:  2 eigenvalues not converged
     c_bands:  3 eigenvalues not converged
     c_bands:  5 eigenvalues not converged
     c_bands:  3 eigenvalues not converged
     c_bands:  2 eigenvalues not converged
     c_bands:  4 eigenvalues not converged
     c_bands:  3 eigenvalues not converged
     c_bands:  4 eigenvalues not converged
     c_bands:  4 eigenvalues not converged
     c_bands:  5 eigenvalues not converged
     c_bands:  1 eigenvalues not converged
     c_bands:  2 eigenvalues not converged
     c_bands:  4 eigenvalues not converged
     c_bands:  4 eigenvalues not converged
     c_bands:  5 eigenvalues not converged
     c_bands:  4 eigenvalues not converged
     c_bands:  5 eigenvalues not converged
     c_bands:  4 eigenvalues not converged
     c_bands:  2 eigenvalues not converged
     c_bands:  5 eigenvalues not converged
     c_bands:  4 eigenvalues not converged
     c_bands:  4 eigenvalues not converged
     c_bands:  3 eigenvalues not converged
     c_bands:  5 eigenvalues not converged
     c_bands:  3 eigenvalues not converged
     c_bands:  4 eigenvalues not converged
     c_bands:  3 eigenvalues not converged
     c_bands:  2 eigenvalues not converged
     ethr =  2.70E-09,  avg # of iterations = 23.3

     total cpu time spent up to now is      440.6 secs

     total energy              =    -517.49579394 Ry
     estimated scf accuracy    <       0.00025870 Ry

     total magnetization       =     0.95 Bohr mag/cell
     absolute magnetization    =     0.98 Bohr mag/cell

     iteration # 27     ecut=   160.00 Ry     beta= 0.50
     Davidson diagonalization with overlap

---- Real-time Memory Report at c_bands before calling an iterative solver
           181 MiB given to the printing process from OS
             0 MiB allocation reported by mallinfo(arena+hblkhd)
         31140 MiB available memory on the node where the printing process lives
------------------
     c_bands:  4 eigenvalues not converged
     c_bands:  2 eigenvalues not converged
     c_bands:  2 eigenvalues not converged
     c_bands:  1 eigenvalues not converged
     c_bands:  1 eigenvalues not converged
     c_bands:  2 eigenvalues not converged
     c_bands:  3 eigenvalues not converged
     c_bands:  4 eigenvalues not converged
     c_bands:  2 eigenvalues not converged
     c_bands:  2 eigenvalues not converged
     c_bands:  3 eigenvalues not converged
     c_bands:  3 eigenvalues not converged
     c_bands:  3 eigenvalues not converged
     c_bands:  2 eigenvalues not converged
     c_bands:  5 eigenvalues not converged
     c_bands:  4 eigenvalues not converged
     c_bands:  3 eigenvalues not converged
     c_bands:  2 eigenvalues not converged
     c_bands:  5 eigenvalues not converged
     c_bands:  4 eigenvalues not converged
     c_bands:  2 eigenvalues not converged
     c_bands:  4 eigenvalues not converged
     c_bands:  4 eigenvalues not converged
     c_bands:  3 eigenvalues not converged
     c_bands:  3 eigenvalues not converged
     c_bands:  3 eigenvalues not converged
     c_bands:  3 eigenvalues not converged
     c_bands:  4 eigenvalues not converged
     c_bands:  2 eigenvalues not converged
     c_bands:  5 eigenvalues not converged
     ethr =  2.70E-09,  avg # of iterations = 19.2

     total cpu time spent up to now is      470.6 secs

     total energy              =    -517.49577554 Ry
     estimated scf accuracy    <       0.00071650 Ry

     total magnetization       =     0.92 Bohr mag/cell
     absolute magnetization    =     0.94 Bohr mag/cell

     iteration # 28     ecut=   160.00 Ry     beta= 0.50
     Davidson diagonalization with overlap

---- Real-time Memory Report at c_bands before calling an iterative solver
           181 MiB given to the printing process from OS
             0 MiB allocation reported by mallinfo(arena+hblkhd)
         31137 MiB available memory on the node where the printing process lives
------------------
     c_bands:  5 eigenvalues not converged
     c_bands:  2 eigenvalues not converged
     c_bands:  1 eigenvalues not converged
     c_bands:  4 eigenvalues not converged
     c_bands:  4 eigenvalues not converged
     c_bands:  2 eigenvalues not converged
     c_bands:  5 eigenvalues not converged
     c_bands:  4 eigenvalues not converged
     c_bands:  4 eigenvalues not converged
     c_bands:  4 eigenvalues not converged
     c_bands:  2 eigenvalues not converged
     c_bands:  4 eigenvalues not converged
     c_bands:  4 eigenvalues not converged
     c_bands:  5 eigenvalues not converged
     c_bands:  2 eigenvalues not converged
     c_bands:  1 eigenvalues not converged
     c_bands:  5 eigenvalues not converged
     c_bands:  3 eigenvalues not converged
     c_bands:  2 eigenvalues not converged
     c_bands:  5 eigenvalues not converged
     c_bands:  3 eigenvalues not converged
     c_bands:  2 eigenvalues not converged
     c_bands:  5 eigenvalues not converged
     c_bands:  5 eigenvalues not converged
     c_bands:  1 eigenvalues not converged
     c_bands:  4 eigenvalues not converged
     c_bands:  3 eigenvalues not converged
     c_bands:  4 eigenvalues not converged
     c_bands:  4 eigenvalues not converged
     c_bands:  1 eigenvalues not converged
     c_bands:  5 eigenvalues not converged
     c_bands:  1 eigenvalues not converged
     c_bands:  1 eigenvalues not converged
     ethr =  2.70E-09,  avg # of iterations = 19.7

     total cpu time spent up to now is      502.3 secs

     total energy              =    -517.49578277 Ry
     estimated scf accuracy    <       0.00011365 Ry

     total magnetization       =     0.90 Bohr mag/cell
     absolute magnetization    =     0.92 Bohr mag/cell

     iteration # 29     ecut=   160.00 Ry     beta= 0.50
     Davidson diagonalization with overlap

---- Real-time Memory Report at c_bands before calling an iterative solver
           181 MiB given to the printing process from OS
             0 MiB allocation reported by mallinfo(arena+hblkhd)
         31138 MiB available memory on the node where the printing process lives
------------------
     c_bands:  2 eigenvalues not converged
     c_bands:  1 eigenvalues not converged
     c_bands:  2 eigenvalues not converged
     c_bands:  3 eigenvalues not converged
     c_bands:  4 eigenvalues not converged
     c_bands:  2 eigenvalues not converged
     c_bands:  1 eigenvalues not converged
     c_bands:  2 eigenvalues not converged
     c_bands:  1 eigenvalues not converged
     c_bands:  2 eigenvalues not converged
     c_bands:  2 eigenvalues not converged
     c_bands:  2 eigenvalues not converged
     c_bands:  4 eigenvalues not converged
     c_bands:  3 eigenvalues not converged
     c_bands:  1 eigenvalues not converged
     ethr =  2.70E-09,  avg # of iterations = 13.5

     total cpu time spent up to now is      519.0 secs

     total energy              =    -517.49578907 Ry
     estimated scf accuracy    <       0.00007172 Ry

     total magnetization       =     0.91 Bohr mag/cell
     absolute magnetization    =     0.93 Bohr mag/cell

     iteration # 30     ecut=   160.00 Ry     beta= 0.50
     Davidson diagonalization with overlap

---- Real-time Memory Report at c_bands before calling an iterative solver
           181 MiB given to the printing process from OS
             0 MiB allocation reported by mallinfo(arena+hblkhd)
         31138 MiB available memory on the node where the printing process lives
------------------
     c_bands:  1 eigenvalues not converged
     c_bands:  2 eigenvalues not converged
     c_bands:  2 eigenvalues not converged
     c_bands:  4 eigenvalues not converged
     c_bands:  1 eigenvalues not converged
     c_bands:  2 eigenvalues not converged
     c_bands:  1 eigenvalues not converged
     c_bands:  2 eigenvalues not converged
     c_bands:  2 eigenvalues not converged
     c_bands:  2 eigenvalues not converged
     c_bands:  4 eigenvalues not converged
     ethr =  2.70E-09,  avg # of iterations = 13.7

     total cpu time spent up to now is      537.4 secs

     total energy              =    -517.49579507 Ry
     estimated scf accuracy    <       0.00013439 Ry

     total magnetization       =     0.88 Bohr mag/cell
     absolute magnetization    =     0.90 Bohr mag/cell

     iteration # 31     ecut=   160.00 Ry     beta= 0.50
     Davidson diagonalization with overlap

---- Real-time Memory Report at c_bands before calling an iterative solver
           181 MiB given to the printing process from OS
             0 MiB allocation reported by mallinfo(arena+hblkhd)
         31142 MiB available memory on the node where the printing process lives
------------------
     c_bands:  2 eigenvalues not converged
     c_bands:  2 eigenvalues not converged
     c_bands:  4 eigenvalues not converged
     c_bands:  3 eigenvalues not converged
     c_bands:  2 eigenvalues not converged
     c_bands:  2 eigenvalues not converged
     c_bands:  1 eigenvalues not converged
     c_bands:  4 eigenvalues not converged
     ethr =  2.70E-09,  avg # of iterations = 10.6

     total cpu time spent up to now is      551.9 secs

     total energy              =    -517.49579322 Ry
     estimated scf accuracy    <       0.00016451 Ry

     total magnetization       =     0.87 Bohr mag/cell
     absolute magnetization    =     0.89 Bohr mag/cell

     iteration # 32     ecut=   160.00 Ry     beta= 0.50
     Davidson diagonalization with overlap

---- Real-time Memory Report at c_bands before calling an iterative solver
           182 MiB given to the printing process from OS
             0 MiB allocation reported by mallinfo(arena+hblkhd)
         31144 MiB available memory on the node where the printing process lives
------------------
     c_bands:  2 eigenvalues not converged
     c_bands:  2 eigenvalues not converged
     c_bands:  2 eigenvalues not converged
     c_bands:  4 eigenvalues not converged
     c_bands:  2 eigenvalues not converged
     c_bands:  1 eigenvalues not converged
     c_bands:  1 eigenvalues not converged
     c_bands:  2 eigenvalues not converged
     c_bands:  2 eigenvalues not converged
     c_bands:  2 eigenvalues not converged
     c_bands:  1 eigenvalues not converged
     c_bands:  4 eigenvalues not converged
     c_bands:  2 eigenvalues not converged
     c_bands:  1 eigenvalues not converged
     ethr =  2.70E-09,  avg # of iterations = 14.7

     total cpu time spent up to now is      574.3 secs

     total energy              =    -517.49577541 Ry
     estimated scf accuracy    <       0.00014290 Ry

     total magnetization       =     0.83 Bohr mag/cell
     absolute magnetization    =     0.85 Bohr mag/cell

     iteration # 33     ecut=   160.00 Ry     beta= 0.50
     Davidson diagonalization with overlap

---- Real-time Memory Report at c_bands before calling an iterative solver
           182 MiB given to the printing process from OS
             0 MiB allocation reported by mallinfo(arena+hblkhd)
         31145 MiB available memory on the node where the printing process lives
------------------
     c_bands:  3 eigenvalues not converged
     c_bands:  1 eigenvalues not converged
     c_bands:  2 eigenvalues not converged
     c_bands:  2 eigenvalues not converged
     c_bands:  2 eigenvalues not converged
     c_bands:  5 eigenvalues not converged
     c_bands:  2 eigenvalues not converged
     c_bands:  3 eigenvalues not converged
     c_bands:  5 eigenvalues not converged
     c_bands:  3 eigenvalues not converged
     c_bands:  2 eigenvalues not converged
     c_bands:  4 eigenvalues not converged
     c_bands:  3 eigenvalues not converged
     c_bands:  3 eigenvalues not converged
     c_bands:  4 eigenvalues not converged
     c_bands:  1 eigenvalues not converged
     c_bands:  2 eigenvalues not converged
     c_bands:  2 eigenvalues not converged
     c_bands:  1 eigenvalues not converged
     c_bands:  2 eigenvalues not converged
     c_bands:  1 eigenvalues not converged
     c_bands:  4 eigenvalues not converged
     c_bands:  2 eigenvalues not converged
     c_bands:  2 eigenvalues not converged
     c_bands:  2 eigenvalues not converged
     c_bands:  3 eigenvalues not converged
     c_bands:  2 eigenvalues not converged
     ethr =  2.70E-09,  avg # of iterations = 18.5

     total cpu time spent up to now is      604.5 secs

     total energy              =    -517.49581173 Ry
     estimated scf accuracy    <       0.00004868 Ry

     total magnetization       =     0.74 Bohr mag/cell
     absolute magnetization    =     0.75 Bohr mag/cell

     iteration # 34     ecut=   160.00 Ry     beta= 0.50
     Davidson diagonalization with overlap

---- Real-time Memory Report at c_bands before calling an iterative solver
           182 MiB given to the printing process from OS
             0 MiB allocation reported by mallinfo(arena+hblkhd)
         31133 MiB available memory on the node where the printing process lives
------------------
     c_bands:  2 eigenvalues not converged
     c_bands:  1 eigenvalues not converged
     c_bands:  2 eigenvalues not converged
     c_bands:  2 eigenvalues not converged
     c_bands:  4 eigenvalues not converged
     c_bands:  3 eigenvalues not converged
     c_bands:  2 eigenvalues not converged
     c_bands:  1 eigenvalues not converged
     c_bands:  2 eigenvalues not converged
     c_bands:  2 eigenvalues not converged
     c_bands:  1 eigenvalues not converged
     c_bands:  1 eigenvalues not converged
     c_bands:  4 eigenvalues not converged
     c_bands:  1 eigenvalues not converged
     ethr =  2.70E-09,  avg # of iterations = 12.7

     total cpu time spent up to now is      620.2 secs

     total energy              =    -517.49581582 Ry
     estimated scf accuracy    <       0.00003631 Ry

     total magnetization       =     0.72 Bohr mag/cell
     absolute magnetization    =     0.74 Bohr mag/cell

     iteration # 35     ecut=   160.00 Ry     beta= 0.50
     Davidson diagonalization with overlap

---- Real-time Memory Report at c_bands before calling an iterative solver
           182 MiB given to the printing process from OS
             0 MiB allocation reported by mallinfo(arena+hblkhd)
         31135 MiB available memory on the node where the printing process lives
------------------
     c_bands:  2 eigenvalues not converged
     c_bands:  1 eigenvalues not converged
     c_bands:  2 eigenvalues not converged
     c_bands:  3 eigenvalues not converged
     c_bands:  1 eigenvalues not converged
     c_bands:  2 eigenvalues not converged
     c_bands:  2 eigenvalues not converged
     c_bands:  1 eigenvalues not converged
     c_bands:  4 eigenvalues not converged
     c_bands:  1 eigenvalues not converged
     c_bands:  1 eigenvalues not converged
     ethr =  2.70E-09,  avg # of iterations = 12.9

     total cpu time spent up to now is      637.9 secs

     total energy              =    -517.49579877 Ry
     estimated scf accuracy    <       0.00008039 Ry

     total magnetization       =     0.72 Bohr mag/cell
     absolute magnetization    =     0.74 Bohr mag/cell

     iteration # 36     ecut=   160.00 Ry     beta= 0.50
     Davidson diagonalization with overlap

---- Real-time Memory Report at c_bands before calling an iterative solver
           182 MiB given to the printing process from OS
             0 MiB allocation reported by mallinfo(arena+hblkhd)
         31139 MiB available memory on the node where the printing process lives
------------------
     c_bands:  4 eigenvalues not converged
     c_bands:  2 eigenvalues not converged
     c_bands:  3 eigenvalues not converged
     c_bands:  3 eigenvalues not converged
     c_bands:  2 eigenvalues not converged
     c_bands:  4 eigenvalues not converged
     c_bands:  4 eigenvalues not converged
     c_bands:  5 eigenvalues not converged
     c_bands:  2 eigenvalues not converged
     c_bands:  3 eigenvalues not converged
     c_bands:  3 eigenvalues not converged
     c_bands:  2 eigenvalues not converged
     c_bands:  5 eigenvalues not converged
     c_bands:  3 eigenvalues not converged
     c_bands:  2 eigenvalues not converged
     c_bands:  1 eigenvalues not converged
     c_bands:  1 eigenvalues not converged
     c_bands:  4 eigenvalues not converged
     c_bands:  2 eigenvalues not converged
     c_bands:  1 eigenvalues not converged
     c_bands:  1 eigenvalues not converged
     ethr =  2.70E-09,  avg # of iterations = 17.5

     total cpu time spent up to now is      666.3 secs

     total energy              =    -517.49581833 Ry
     estimated scf accuracy    <       0.00000796 Ry

     total magnetization       =     0.65 Bohr mag/cell
     absolute magnetization    =     0.66 Bohr mag/cell

     iteration # 37     ecut=   160.00 Ry     beta= 0.50
     Davidson diagonalization with overlap

---- Real-time Memory Report at c_bands before calling an iterative solver
           182 MiB given to the printing process from OS
             0 MiB allocation reported by mallinfo(arena+hblkhd)
         31138 MiB available memory on the node where the printing process lives
------------------
     c_bands:  2 eigenvalues not converged
     c_bands:  2 eigenvalues not converged
     c_bands:  5 eigenvalues not converged
     c_bands:  2 eigenvalues not converged
     c_bands:  2 eigenvalues not converged
     c_bands:  3 eigenvalues not converged
     c_bands:  3 eigenvalues not converged
     c_bands:  4 eigenvalues not converged
     c_bands:  1 eigenvalues not converged
     c_bands:  1 eigenvalues not converged
     c_bands:  3 eigenvalues not converged
     c_bands:  2 eigenvalues not converged
     c_bands:  2 eigenvalues not converged
     c_bands:  2 eigenvalues not converged
     c_bands:  1 eigenvalues not converged
     c_bands:  3 eigenvalues not converged
     c_bands:  1 eigenvalues not converged
     ethr =  2.70E-09,  avg # of iterations = 15.0

     total cpu time spent up to now is      689.8 secs

     total energy              =    -517.49582264 Ry
     estimated scf accuracy    <       0.00000901 Ry

     total magnetization       =     0.62 Bohr mag/cell
     absolute magnetization    =     0.63 Bohr mag/cell

     iteration # 38     ecut=   160.00 Ry     beta= 0.50
     Davidson diagonalization with overlap

---- Real-time Memory Report at c_bands before calling an iterative solver
           182 MiB given to the printing process from OS
             0 MiB allocation reported by mallinfo(arena+hblkhd)
         31134 MiB available memory on the node where the printing process lives
------------------
     c_bands:  2 eigenvalues not converged
     c_bands:  2 eigenvalues not converged
     c_bands:  1 eigenvalues not converged
     c_bands:  2 eigenvalues not converged
     c_bands:  3 eigenvalues not converged
     c_bands:  3 eigenvalues not converged
     c_bands:  2 eigenvalues not converged
     c_bands:  1 eigenvalues not converged
     c_bands:  2 eigenvalues not converged
     c_bands:  1 eigenvalues not converged
     c_bands:  2 eigenvalues not converged
     c_bands:  3 eigenvalues not converged
     c_bands:  2 eigenvalues not converged
     c_bands:  1 eigenvalues not converged
     c_bands:  3 eigenvalues not converged
     c_bands:  1 eigenvalues not converged
     c_bands:  1 eigenvalues not converged
     ethr =  2.70E-09,  avg # of iterations = 15.5

     total cpu time spent up to now is      713.1 secs

     total energy              =    -517.49582908 Ry
     estimated scf accuracy    <       0.00002203 Ry

     total magnetization       =     0.58 Bohr mag/cell
     absolute magnetization    =     0.60 Bohr mag/cell

     iteration # 39     ecut=   160.00 Ry     beta= 0.50
     Davidson diagonalization with overlap

---- Real-time Memory Report at c_bands before calling an iterative solver
           182 MiB given to the printing process from OS
             0 MiB allocation reported by mallinfo(arena+hblkhd)
         31135 MiB available memory on the node where the printing process lives
------------------
     c_bands:  2 eigenvalues not converged
     c_bands:  2 eigenvalues not converged
     c_bands:  2 eigenvalues not converged
     c_bands:  2 eigenvalues not converged
     c_bands:  3 eigenvalues not converged
     c_bands:  2 eigenvalues not converged
     c_bands:  2 eigenvalues not converged
     c_bands:  2 eigenvalues not converged
     c_bands:  1 eigenvalues not converged
     c_bands:  2 eigenvalues not converged
     ethr =  2.70E-09,  avg # of iterations = 10.8

     total cpu time spent up to now is      727.0 secs

     total energy              =    -517.49583042 Ry
     estimated scf accuracy    <       0.00002728 Ry

     total magnetization       =     0.59 Bohr mag/cell
     absolute magnetization    =     0.60 Bohr mag/cell

     iteration # 40     ecut=   160.00 Ry     beta= 0.50
     Davidson diagonalization with overlap

---- Real-time Memory Report at c_bands before calling an iterative solver
           182 MiB given to the printing process from OS
             0 MiB allocation reported by mallinfo(arena+hblkhd)
         31129 MiB available memory on the node where the printing process lives
------------------
     c_bands:  2 eigenvalues not converged
     c_bands:  2 eigenvalues not converged
     c_bands:  2 eigenvalues not converged
     c_bands:  2 eigenvalues not converged
     c_bands:  3 eigenvalues not converged
     c_bands:  2 eigenvalues not converged
     c_bands:  1 eigenvalues not converged
     c_bands:  2 eigenvalues not converged
     c_bands:  1 eigenvalues not converged
     c_bands:  2 eigenvalues not converged
     c_bands:  4 eigenvalues not converged
     ethr =  2.70E-09,  avg # of iterations =  8.9

     total cpu time spent up to now is      740.2 secs

     total energy              =    -517.49581815 Ry
     estimated scf accuracy    <       0.00003905 Ry

     total magnetization       =     0.59 Bohr mag/cell
     absolute magnetization    =     0.60 Bohr mag/cell

     iteration # 41     ecut=   160.00 Ry     beta= 0.50
     Davidson diagonalization with overlap

---- Real-time Memory Report at c_bands before calling an iterative solver
           182 MiB given to the printing process from OS
             0 MiB allocation reported by mallinfo(arena+hblkhd)
         31132 MiB available memory on the node where the printing process lives
------------------
     c_bands:  2 eigenvalues not converged
     c_bands:  2 eigenvalues not converged
     c_bands:  2 eigenvalues not converged
     c_bands:  2 eigenvalues not converged
     c_bands:  2 eigenvalues not converged
     c_bands:  3 eigenvalues not converged
     c_bands:  2 eigenvalues not converged
     c_bands:  2 eigenvalues not converged
     c_bands:  2 eigenvalues not converged
     c_bands:  1 eigenvalues not converged
     c_bands:  2 eigenvalues not converged
     c_bands:  1 eigenvalues not converged
     c_bands:  2 eigenvalues not converged
     c_bands:  1 eigenvalues not converged
     c_bands:  1 eigenvalues not converged
     c_bands:  1 eigenvalues not converged
     c_bands:  1 eigenvalues not converged
     c_bands:  2 eigenvalues not converged
     c_bands:  1 eigenvalues not converged
     c_bands:  2 eigenvalues not converged
     c_bands:  1 eigenvalues not converged
     ethr =  2.70E-09,  avg # of iterations = 15.9

     total cpu time spent up to now is      763.8 secs

     total energy              =    -517.49580335 Ry
     estimated scf accuracy    <       0.00003515 Ry

     total magnetization       =     0.64 Bohr mag/cell
     absolute magnetization    =     0.65 Bohr mag/cell

     iteration # 42     ecut=   160.00 Ry     beta= 0.50
     Davidson diagonalization with overlap

---- Real-time Memory Report at c_bands before calling an iterative solver
           182 MiB given to the printing process from OS
             0 MiB allocation reported by mallinfo(arena+hblkhd)
[...]
    23.0243  23.3025  23.4384  23.5022  23.5806  23.5807  23.7241  23.7244

     occupation numbers 
     1.0000   1.0000   1.0000   1.0000   1.0000   1.0000   1.0000   1.0000
     1.0000   1.0000   1.0000   1.0000   1.0000   1.0000   1.0000   1.0000
     1.0000   1.0000   1.0000   1.0000   1.0000   1.0000   1.0001   1.0061
     0.7512   0.4487   0.3155   0.2611   0.2025   0.2025   0.1195   0.1194

          k = 0.0000 0.1667 0.3333 ( 20063 PWs)   bands (ev):

   -20.5023 -20.1185 -19.9594 -19.9297   2.6607   2.7759   2.9036   3.5350
     4.0451   4.6080   4.8117   4.9155   4.9524   5.2063   5.8517   6.2340
    20.0588  20.2471  20.5603  20.6036  20.8862  21.3124  21.4700  22.2079
    22.5688  22.9725  23.3363  23.4140  23.4425  23.4867  23.5044  23.6606

     occupation numbers 
     1.0000   1.0000   1.0000   1.0000   1.0000   1.0000   1.0000   1.0000
     1.0000   1.0000   1.0000   1.0000   1.0000   1.0000   1.0000   1.0000
     1.0000   1.0000   1.0000   1.0000   1.0001   1.0015   1.0040   1.0706
     1.0618   0.8038   0.4137   0.3378   0.3118   0.2737   0.2593   0.1525

          k = 0.0000 0.1667-0.5000 ( 20096 PWs)   bands (ev):

   -20.3136 -20.3131 -19.9440 -19.9434   3.0452   3.0454   3.3706   3.3709
     3.6699   3.6701   4.8730   4.8732   5.3640   5.3643   5.7363   5.7366
    20.9371  20.9372  21.1122  21.1122  21.1513  21.1513  22.6018  22.6019
    22.6807  22.6810  22.7950  22.7951  23.1300  23.1302  23.8469  23.8473

     occupation numbers 
     1.0000   1.0000   1.0000   1.0000   1.0000   1.0000   1.0000   1.0000
     1.0000   1.0000   1.0000   1.0000   1.0000   1.0000   1.0000   1.0000
     1.0001   1.0001   1.0004   1.0004   1.0005   1.0005   1.0524   1.0523
     1.0214   1.0213   0.9548   0.9547   0.6371   0.6369   0.0713   0.0712

          k = 0.0000 0.3333 0.3333 ( 20116 PWs)   bands (ev):

   -20.3906 -20.0774 -20.0769 -19.9681   2.8154   2.8156   3.0836   3.1598
     3.8561   4.3796   4.3800   5.3451   5.3694   5.3697   5.4146   6.2847
    20.1500  21.1517  21.1518  21.4708  21.6169  21.6170  21.6254  22.3828
    22.5300  22.5301  22.8876  23.4090  23.4372  23.5956  23.6232  23.6517

     occupation numbers 
     1.0000   1.0000   1.0000   1.0000   1.0000   1.0000   1.0000   1.0000
     1.0000   1.0000   1.0000   1.0000   1.0000   1.0000   1.0000   1.0000
     1.0000   1.0005   1.0005   1.0040   1.0089   1.0089   1.0093   1.0833
     1.0706   1.0705   0.8825   0.3425   0.3166   0.1924   0.1746   0.1576

          k = 0.0000 0.3333-0.5000 ( 20098 PWs)   bands (ev):

   -20.2356 -20.2351 -20.0222 -20.0216   2.8432   2.8433   3.2162   3.2163
     3.7331   3.7334   4.8720   4.8724   5.4665   5.4666   5.9482   5.9483
    20.9030  20.9031  21.7369  21.7370  21.8084  21.8084  22.0857  22.0858
    22.6964  22.6965  22.7550  22.7551  23.6073  23.6075  23.6290  23.6291

     occupation numbers 
     1.0000   1.0000   1.0000   1.0000   1.0000   1.0000   1.0000   1.0000
     1.0000   1.0000   1.0000   1.0000   1.0000   1.0000   1.0000   1.0000
     1.0001   1.0001   1.0158   1.0158   1.0214   1.0214   1.0544   1.0544
     1.0138   1.0137   0.9811   0.9810   0.1847   0.1846   0.1711   0.1710

          k = 0.0000-0.5000-0.5000 ( 20112 PWs)   bands (ev):

   -20.1295 -20.1284 -20.1284 -20.1284   2.8978   2.8978   2.8981   2.8981
     4.2709   4.2715   4.2716   4.2716   5.8774   5.8774   5.8777   5.8778
    21.1579  21.1579  21.1581  21.1582  22.5265  22.5266  22.5269  22.5269
    22.6602  22.6602  22.6603  22.6604  23.4039  23.4042  23.4043  23.4043

     occupation numbers 
     1.0000   1.0000   1.0000   1.0000   1.0000   1.0000   1.0000   1.0000
     1.0000   1.0000   1.0000   1.0000   1.0000   1.0000   1.0000   1.0000
     1.0005   1.0005   1.0005   1.0005   1.0712   1.0712   1.0712   1.0712
     1.0306   1.0306   1.0306   1.0305   0.3472   0.3470   0.3469   0.3469

          k = 0.1667 0.1667 0.1667 ( 20041 PWs)   bands (ev):

   -20.5915 -19.9714 -19.9706 -19.9706   2.4685   2.4685   2.4686   4.3035
     4.3039   4.3039   4.9933   4.9933   4.9936   5.0121   6.3604   6.3604
    19.5817  19.5817  19.5817  19.8511  21.0058  21.0058  21.0058  21.7323
    23.0018  23.3768  23.3768  23.5639  23.5639  23.5639  23.6270  23.6273

     occupation numbers 
     1.0000   1.0000   1.0000   1.0000   1.0000   1.0000   1.0000   1.0000
     1.0000   1.0000   1.0000   1.0000   1.0000   1.0000   1.0000   1.0000
     1.0000   1.0000   1.0000   1.0000   1.0002   1.0002   1.0002   1.0155
     0.7744   0.3733   0.3733   0.2142   0.2142   0.2142   0.1723   0.1721

          k = 0.1667 0.1667 0.3333 ( 20085 PWs)   bands (ev):

   -20.4650 -20.1069 -19.9693 -19.9688   2.6001   2.6002   2.7786   3.9544
     3.9547   4.1453   4.8773   5.0702   5.0704   5.2578   6.0443   6.1616
    20.1705  20.2510  20.2510  20.4490  21.2916  22.0388  22.2400  22.2401
    22.5819  22.9679  22.9680  23.1438  23.4916  23.4917  23.5745  23.5994

     occupation numbers 
     1.0000   1.0000   1.0000   1.0000   1.0000   1.0000   1.0000   1.0000
     1.0000   1.0000   1.0000   1.0000   1.0000   1.0000   1.0000   1.0000
     1.0000   1.0000   1.0000   1.0000   1.0013   1.0479   1.0743   1.0743
     1.0583   0.8083   0.8082   0.6218   0.2697   0.2697   0.2067   0.1898

          k = 0.1667 0.1667-0.5000 ( 20120 PWs)   bands (ev):

   -20.2885 -20.2880 -19.9684 -19.9678   2.6774   2.6776   3.3510   3.3512
     3.8060   3.8063   5.0696   5.0698   5.5834   5.5836   5.6380   5.6384
    20.6825  20.6826  21.0945  21.0946  21.8248  21.8249  22.1353  22.1354
    22.5345  22.5346  22.9905  22.9906  23.3034  23.3035  23.7678  23.7682

     occupation numbers 
     1.0000   1.0000   1.0000   1.0000   1.0000   1.0000   1.0000   1.0000
     1.0000   1.0000   1.0000   1.0000   1.0000   1.0000   1.0000   1.0000
     1.0000   1.0000   1.0003   1.0003   1.0229   1.0229   1.0612   1.0612
     1.0697   1.0697   0.7858   0.7857   0.4477   0.4476   0.1001   0.1000

          k = 0.1667 0.3333 0.3333 ( 20109 PWs)   bands (ev):

   -20.3622 -20.0761 -20.0756 -19.9962   2.4647   2.5474   2.5476   3.4034
     4.0297   4.6558   4.6561   5.4053   5.4199   5.4202   5.7561   6.2189
    20.3166  20.4276  20.7283  20.7283  22.0440  22.0441  22.2543  22.6236
    22.6236  22.7094  22.9197  23.1038  23.4441  23.4677  23.5950  23.5950

     occupation numbers 
     1.0000   1.0000   1.0000   1.0000   1.0000   1.0000   1.0000   1.0000
     1.0000   1.0000   1.0000   1.0000   1.0000   1.0000   1.0000   1.0000
     1.0000   1.0000   1.0000   1.0000   1.0486   1.0486   1.0758   1.0450
     1.0450   1.0071   0.8540   0.6659   0.3104   0.2898   0.1928   0.1928

          k = 0.1667 0.3333-0.5000 ( 20112 PWs)   bands (ev):

   -20.2202 -20.2197 -20.0353 -20.0348   2.4175   2.4176   2.8236   2.8236
     4.3194   4.3197   5.2724   5.2727   5.5188   5.5189   5.9080   5.9081
    20.8452  20.8452  21.0327  21.0328  21.8536  21.8537  21.8617  21.8617
    22.8174  22.8175  23.1311  23.1312  23.5061  23.5062  23.5998  23.6000

     occupation numbers 
     1.0000   1.0000   1.0000   1.0000   1.0000   1.0000   1.0000   1.0000
     1.0000   1.0000   1.0000   1.0000   1.0000   1.0000   1.0000   1.0000
     1.0000   1.0000   1.0002   1.0002   1.0257   1.0257   1.0265   1.0265
     0.9387   0.9387   0.6359   0.6358   0.2580   0.2579   0.1896   0.1895

          k = 0.1667-0.5000-0.5000 ( 20096 PWs)   bands (ev):

   -20.1280 -20.1269 -20.1269 -20.1269   2.4692   2.4692   2.4694   2.4694
     4.8139   4.8144   4.8144   4.8144   5.8802   5.8802   5.8805   5.8806
    21.0485  21.0485  21.0486  21.0486  21.6681  21.6682  21.6682  21.6683
    23.2304  23.2305  23.2305  23.2305  23.4217  23.4219  23.4219  23.4219

     occupation numbers 
     1.0000   1.0000   1.0000   1.0000   1.0000   1.0000   1.0000   1.0000
     1.0000   1.0000   1.0000   1.0000   1.0000   1.0000   1.0000   1.0000
     1.0002   1.0002   1.0002   1.0002   1.0115   1.0115   1.0115   1.0115
     0.5261   0.5261   0.5260   0.5260   0.3307   0.3305   0.3305   0.3305

          k = 0.3333 0.3333 0.3333 ( 20054 PWs)   bands (ev):

   -20.2846 -20.0737 -20.0729 -20.0729   2.1660   2.1660   2.1662   2.7183
     5.0017   5.0022   5.0022   5.5715   5.5715   5.5718   6.0412   6.0412
    19.8921  20.5910  20.5910  20.5910  21.8199  21.8199  21.8202  22.2797
    23.1126  23.1126  23.1126  23.5089  23.5089  23.5089  23.5163  23.5163

     occupation numbers 
     1.0000   1.0000   1.0000   1.0000   1.0000   1.0000   1.0000   1.0000
     1.0000   1.0000   1.0000   1.0000   1.0000   1.0000   1.0000   1.0000
     1.0000   1.0000   1.0000   1.0000   1.0225   1.0225   1.0225   1.0782
     0.6563   0.6563   0.6563   0.2557   0.2557   0.2557   0.2499   0.2499

          k = 0.3333 0.3333-0.5000 ( 20070 PWs)   bands (ev):

   -20.1790 -20.1785 -20.0721 -20.0716   2.0136   2.0136   2.2612   2.2612
     5.1063   5.1067   5.6770   5.6772   5.7688   5.7689   5.8034   5.8037
    20.1521  20.1521  20.7638  20.7639  21.4468  21.4469  21.9226  21.9227
    23.2954  23.2954  23.3104  23.3105  23.4788  23.4790  23.5367  23.5368

     occupation numbers 
     1.0000   1.0000   1.0000   1.0000   1.0000   1.0000   1.0000   1.0000
     1.0000   1.0000   1.0000   1.0000   1.0000   1.0000   1.0000   1.0000
     1.0000   1.0000   1.0000   1.0000   1.0035   1.0035   1.0331   1.0331
     0.4561   0.4561   0.4404   0.4403   0.2803   0.2802   0.2342   0.2341

          k = 0.3333-0.5000-0.5000 ( 20100 PWs)   bands (ev):

   -20.1250 -20.1239 -20.1239 -20.1239   1.9556   1.9556   1.9557   1.9558
     5.5686   5.5690   5.5690   5.5691   5.8858   5.8858   5.8862   5.8862
    20.1258  20.1258  20.1258  20.1259  21.7968  21.7968  21.7968  21.7970
    23.4280  23.4280  23.4280  23.4282  23.4486  23.4487  23.4487  23.4488

     occupation numbers 
     1.0000   1.0000   1.0000   1.0000   1.0000   1.0000   1.0000   1.0000
     1.0000   1.0000   1.0000   1.0000   1.0000   1.0000   1.0000   1.0000
     1.0000   1.0000   1.0000   1.0000   1.0204   1.0204   1.0204   1.0205
     0.3249   0.3249   0.3249   0.3248   0.3064   0.3063   0.3063   0.3062

          k =-0.5000-0.5000-0.5000 ( 19952 PWs)   bands (ev):

   -20.1234 -20.1224 -20.1224 -20.1224   1.7633   1.7633   1.7633   1.7634
     5.8885   5.8885   5.8885   5.8890   5.8890   5.8890   5.8890   5.8890
    19.6860  19.6860  19.6860  19.6861  21.9879  21.9879  21.9879  21.9882
    23.4593  23.4593  23.4593  23.4594  23.4594  23.4594  23.4595  23.4595

     occupation numbers 
     1.0000   1.0000   1.0000   1.0000   1.0000   1.0000   1.0000   1.0000
     1.0000   1.0000   1.0000   1.0000   1.0000   1.0000   1.0000   1.0000
     1.0000   1.0000   1.0000   1.0000   1.0411   1.0411   1.0411   1.0412
     0.2970   0.2970   0.2970   0.2970   0.2970   0.2970   0.2969   0.2969

     the Fermi energy is    23.3492 ev

!    total energy              =    -517.49587530 Ry
     estimated scf accuracy    <          7.2E-09 Ry
     smearing contrib. (-TS)   =      -0.04596764 Ry
     internal energy E=F+TS    =    -517.44990767 Ry

     The total energy is F=E-TS. E is the sum of the following terms:
     one-electron contribution =      40.79733029 Ry
     hartree contribution      =      37.39463120 Ry
     xc contribution           =    -166.58674030 Ry
     ewald contribution        =    -429.05512886 Ry

     total magnetization       =     0.00 Bohr mag/cell
     absolute magnetization    =     0.00 Bohr mag/cell

     convergence has been achieved in  99 iterations

     Forces acting on atoms (cartesian axes, Ry/au):

     atom    1 type  1   force =     0.00000000    0.00000000    0.00000000
     atom    2 type  1   force =     0.00000000    0.00000000    0.00000000
     atom    3 type  1   force =     0.00000000    0.00000000    0.00000000
     atom    4 type  1   force =     0.00000000    0.00000000    0.00000000
     The non-local contrib.  to forces
     atom    1 type  1   force =     0.00000000    0.00000000    0.00000000
     atom    2 type  1   force =     0.00000000    0.00000000    0.00000000
     atom    3 type  1   force =     0.00000000    0.00000000    0.00000000
     atom    4 type  1   force =     0.00000000    0.00000000    0.00000000
     The ionic contribution  to forces
     atom    1 type  1   force =    -0.00000000   -0.00000000   -0.00000000
     atom    2 type  1   force =     0.00000000    0.00000000   -0.00000000
     atom    3 type  1   force =     0.00000000   -0.00000000    0.00000000
     atom    4 type  1   force =    -0.00000000    0.00000000    0.00000000
     The local contribution  to forces
     atom    1 type  1   force =     0.00000000    0.00000000    0.00000000
     atom    2 type  1   force =     0.00000000    0.00000000    0.00000000
     atom    3 type  1   force =     0.00000000    0.00000000    0.00000000
     atom    4 type  1   force =     0.00000000    0.00000000    0.00000000
     The core correction contribution to forces
     atom    1 type  1   force =     0.00000000    0.00000000    0.00000000
     atom    2 type  1   force =    -0.00000000   -0.00000000    0.00000000
     atom    3 type  1   force =    -0.00000000    0.00000000   -0.00000000
     atom    4 type  1   force =     0.00000000    0.00000000    0.00000000
     The Hubbard contrib.    to forces
     atom    1 type  1   force =     0.00000000    0.00000000    0.00000000
     atom    2 type  1   force =     0.00000000    0.00000000    0.00000000
     atom    3 type  1   force =     0.00000000    0.00000000    0.00000000
     atom    4 type  1   force =     0.00000000    0.00000000    0.00000000
     The SCF correction term to forces
     atom    1 type  1   force =    -0.00000000   -0.00000000   -0.00000000
     atom    2 type  1   force =    -0.00000000    0.00000000   -0.00000000
     atom    3 type  1   force =     0.00000000    0.00000000   -0.00000000
     atom    4 type  1   force =    -0.00000000    0.00000000    0.00000000

     Total force =     0.000000     Total SCF correction =     0.000000


     Computing stress (Cartesian axis) and pressure

          total   stress  (Ry/bohr**3)                   (kbar)     P=       -3.62
  -0.00002459   0.00000000   0.00000000           -3.62        0.00        0.00
   0.00000000  -0.00002459   0.00000000            0.00       -3.62        0.00
   0.00000000   0.00000000  -0.00002459            0.00        0.00       -3.62

     kinetic stress (kbar)  31267.22      0.00      0.00
                                0.00  31267.22      0.00
                                0.00      0.00  31267.22

     local   stress (kbar)   8433.50      0.00      0.00
                                0.00   8433.50      0.00
                                0.00      0.00   8433.50

     nonloc. stress (kbar)   -518.60      0.00      0.00
                                0.00   -518.60      0.00
                                0.00      0.00   -518.60

     hartree stress (kbar)   3118.37      0.00      0.00
                                0.00   3118.37      0.00
                                0.00      0.00   3118.37

     exc-cor stress (kbar)  21053.33     -0.00      0.00
                               -0.00  21053.33     -0.00
                                0.00     -0.00  21053.33

     corecor stress (kbar) -27578.14     -0.00      0.00
                               -0.00 -27578.14      0.00
                                0.00      0.00 -27578.14

     ewald   stress (kbar) -35779.30      0.00     -0.00
                                0.00 -35779.30     -0.00
                               -0.00     -0.00 -35779.30

     hubbard stress (kbar)      0.00      0.00      0.00
                                0.00      0.00      0.00
                                0.00      0.00      0.00

     DFT-D   stress (kbar)      0.00      0.00      0.00
                                0.00      0.00      0.00
                                0.00      0.00      0.00

     XDM     stress (kbar)      0.00      0.00      0.00
                                0.00      0.00      0.00
                                0.00      0.00      0.00

     dft-nl  stress (kbar)      0.00      0.00      0.00
                                0.00      0.00      0.00
                                0.00      0.00      0.00

     TS-vdW  stress (kbar)      0.00      0.00      0.00
                                0.00      0.00      0.00
                                0.00      0.00      0.00


                                0.00      0.00      0.00
                                0.00      0.00      0.00


                                0.00      0.00      0.00


     Writing output data file ./Uranium.save/

     init_run     :      5.71s CPU      5.93s WALL (       1 calls)
     electrons    :   2822.92s CPU   2871.77s WALL (       1 calls)
     forces       :      3.98s CPU      4.20s WALL (       1 calls)
     stress       :      8.22s CPU      8.56s WALL (       1 calls)

     Called by init_run:
     wfcinit      :      3.09s CPU      3.16s WALL (       1 calls)
     wfcinit:wfcr :      2.88s CPU      2.94s WALL (      40 calls)
     potinit      :      0.51s CPU      0.52s WALL (       1 calls)
     hinit0       :      0.90s CPU      0.91s WALL (       1 calls)

     Called by electrons:
     c_bands      :   2547.59s CPU   2569.38s WALL (      99 calls)
     sum_band     :    196.96s CPU    210.08s WALL (      99 calls)
     v_of_rho     :     13.62s CPU     13.72s WALL (     100 calls)
     v_h          :      0.31s CPU      0.31s WALL (     100 calls)
     v_xc         :     13.57s CPU     13.67s WALL (     102 calls)
     newd         :     62.60s CPU     74.19s WALL (     100 calls)
     mix_rho      :      1.82s CPU      1.91s WALL (      99 calls)

     Called by c_bands:
     init_us_2    :      9.34s CPU      9.63s WALL (    8040 calls)
     cegterg      :   2500.53s CPU   2521.73s WALL (    4542 calls)

     Called by sum_band:
     sum_band:wei :      0.43s CPU      0.43s WALL (      99 calls)
     sum_band:loo :    109.15s CPU    110.28s WALL (      99 calls)
     sum_band:buf :      0.50s CPU      0.52s WALL (    3960 calls)
     sum_band:ini :      4.22s CPU      4.31s WALL (    3960 calls)
     sum_band:cal :     35.88s CPU     36.05s WALL (    3960 calls)
     sum_band:bec :      2.39s CPU      2.40s WALL (    3960 calls)
     addusdens    :     83.68s CPU     95.27s WALL (      99 calls)
     addusd:skk   :      0.05s CPU      0.05s WALL (      99 calls)
     addusd:dgemm :     23.72s CPU     32.51s WALL (     198 calls)
     addusd:qvan2 :     55.51s CPU     55.95s WALL (     198 calls)

     Called by *egterg:
     cdiaghg      :    269.09s CPU    270.46s WALL (   75846 calls)
     cegterg:over :    182.44s CPU    183.98s WALL (   71304 calls)
     cegterg:upda :     82.68s CPU     83.19s WALL (   71304 calls)
     cegterg:last :    289.05s CPU    290.12s WALL (   24958 calls)
     h_psi        :   1390.11s CPU   1405.29s WALL (   75886 calls)
     s_psi        :    244.55s CPU    245.89s WALL (   75886 calls)
     g_psi        :      4.51s CPU      4.56s WALL (   71304 calls)

     Called by h_psi:
     h_psi:calbec :    245.48s CPU    247.44s WALL (   75886 calls)
     vloc_psi     :    894.55s CPU    906.60s WALL (   75886 calls)
     add_vuspsi   :    245.76s CPU    246.96s WALL (   75886 calls)

     General routines
     calbec       :    282.98s CPU    285.23s WALL (   80046 calls)
     fft          :      6.45s CPU      6.54s WALL (    2538 calls)
     ffts         :      0.44s CPU      0.44s WALL (     398 calls)
     fftw         :    899.65s CPU    911.77s WALL ( 1786190 calls)
     interpolate  :      0.73s CPU      0.74s WALL (     200 calls)

     Parallel routines

     PWSCF        :  47m22.51s CPU  48m15.83s WALL


   This run was terminated on:  14: 0:20   8Dec2021            

=------------------------------------------------------------------------------=
   JOB DONE.
=------------------------------------------------------------------------------=
