
     Program PWSCF v.6.8 starts on  8Dec2021 at 19:41:16 

     This program is part of the open-source Quantum ESPRESSO suite
     for quantum simulation of materials; please cite
         "P. Giannozzi et al., J. Phys.:Condens. Matter 21 395502 (2009);
         "P. Giannozzi et al., J. Phys.:Condens. Matter 29 465901 (2017);
         "P. Giannozzi et al., J. Chem. Phys. 152 154105 (2020);
          URL http://www.quantum-espresso.org", 
     in publications or presentations arising from this work. More details at
     http://www.quantum-espresso.org/quote

     Parallel version (MPI), running on    32 processors

     MPI processes distributed on     1 nodes
     R & G space division:  proc/nbgrp/npool/nimage =      32
     32079 MiB available memory on the printing compute node when the environment starts

     Reading input from runc.in
Warning: card &CELL ignored
Warning: card    CELL_DYNAMICS = 'BFGS' , ignored
Warning: card    CELL_DOFREE = 'ALL', ignored
Warning: card    PRESS_CONV_THR = 0.5 , ! THIS IS THE DEFAULT ignored
Warning: card  / ignored

     Current dimensions of program PWSCF are:
     Max number of different atomic species (ntypx) = 10
     Max number of k-points (npk) =  40000
     Max angular momentum in pseudopotentials (lmaxx) =  4
     file U.pbe-spfn-rrkjus_psl.1.0.0.UPF: wavefunction(s)  5F renormalized
     Found symmetry operation: I + ( -0.5000  0.5000  0.0000)
     This is a supercell, fractional translations are disabled
     Message from routine setup:
     using ibrav=0 with symmetry is DISCOURAGED, use correct ibrav instead

     Subspace diagonalization in iterative solution of the eigenvalue problem:
     a serial algorithm will be used


     Parallelization info
     --------------------
     sticks:   dense  smooth     PW     G-vecs:    dense   smooth      PW
     Min         168      84     23                 9237     3262     483
     Max         169      85     24                 9242     3265     488
     Sum        5377    2701    749               295667   104415   15515

     Using Slab Decomposition



     bravais-lattice index     =            0
     lattice parameter (alat)  =       8.3778  a.u.
     unit-cell volume          =     588.0141 (a.u.)^3
     number of atoms/cell      =            4
     number of atomic types    =            1
     number of electrons       =        56.00
     number of Kohn-Sham states=           32
     kinetic-energy cutoff     =     120.0000  Ry
     charge density cutoff     =     960.0000  Ry
     scf convergence threshold =      1.0E-08
     mixing beta               =       0.5000
     number of iterations used =            8  plain     mixing
     Exchange-correlation= PBE
                           (   1   4   3   4   0   0   0)

     celldm(1)=   8.377785  celldm(2)=   0.000000  celldm(3)=   0.000000
     celldm(4)=   0.000000  celldm(5)=   0.000000  celldm(6)=   0.000000

     crystal axes: (cart. coord. in units of alat)
               a(1) = (   1.000000   0.000000   0.000000 )  
               a(2) = (   0.000000   1.000000   0.000000 )  
               a(3) = (   0.000000   0.000000   1.000000 )  

     reciprocal axes: (cart. coord. in units 2 pi/alat)
               b(1) = (  1.000000  0.000000  0.000000 )  
               b(2) = (  0.000000  1.000000  0.000000 )  
               b(3) = (  0.000000  0.000000  1.000000 )  


     PseudoPot. # 1 for U  read from file:
     /home/myhawary/QE/runs/pseudo/U.pbe-spfn-rrkjus_psl.1.0.0.UPF
     MD5 check sum: b50a7459bb2a1ad67e79ea3a31ec714c
     Pseudo is Ultrasoft + core correction, Zval = 14.0
     Generated using &quot;atomic&quot; code by A. Dal Corso  v.6.2.2
     Using radial grid of 1291 points,  8 beta functions with: 
                l(1) =   0
                l(2) =   0
                l(3) =   1
                l(4) =   1
                l(5) =   2
                l(6) =   2
                l(7) =   3
                l(8) =   3
     Q(r) pseudized with 0 coefficients 


     atomic species   valence    mass     pseudopotential
        U             14.00   238.00000     U ( 1.00)

     Starting magnetic structure 
     atomic species   magnetization
        U            0.100

     48 Sym. Ops., with inversion, found


                                    s                        frac. trans.

      isym =  1     identity                                     

 cryst.   s( 1) = (     1          0          0      )
                  (     0          1          0      )
                  (     0          0          1      )

 cart.    s( 1) = (  1.0000000  0.0000000  0.0000000 )
                  (  0.0000000  1.0000000  0.0000000 )
                  (  0.0000000  0.0000000  1.0000000 )


      isym =  2     180 deg rotation - cart. axis [0,0,1]        

 cryst.   s( 2) = (    -1          0          0      )
                  (     0         -1          0      )
                  (     0          0          1      )

 cart.    s( 2) = ( -1.0000000  0.0000000  0.0000000 )
                  (  0.0000000 -1.0000000  0.0000000 )
                  (  0.0000000  0.0000000  1.0000000 )


      isym =  3     180 deg rotation - cart. axis [0,1,0]        

 cryst.   s( 3) = (    -1          0          0      )
                  (     0          1          0      )
                  (     0          0         -1      )

 cart.    s( 3) = ( -1.0000000  0.0000000  0.0000000 )
                  (  0.0000000  1.0000000  0.0000000 )
                  (  0.0000000  0.0000000 -1.0000000 )


      isym =  4     180 deg rotation - cart. axis [1,0,0]        

 cryst.   s( 4) = (     1          0          0      )
                  (     0         -1          0      )
                  (     0          0         -1      )

 cart.    s( 4) = (  1.0000000  0.0000000  0.0000000 )
                  (  0.0000000 -1.0000000  0.0000000 )
                  (  0.0000000  0.0000000 -1.0000000 )


      isym =  5     180 deg rotation - cart. axis [1,1,0]        

 cryst.   s( 5) = (     0          1          0      )
                  (     1          0          0      )
                  (     0          0         -1      )

 cart.    s( 5) = (  0.0000000  0.9999999  0.0000000 )
                  (  1.0000001  0.0000000  0.0000000 )
                  (  0.0000000  0.0000000 -1.0000000 )


      isym =  6     180 deg rotation - cart. axis [1,-1,0]       

 cryst.   s( 6) = (     0         -1          0      )
                  (    -1          0          0      )
                  (     0          0         -1      )

 cart.    s( 6) = (  0.0000000 -0.9999999  0.0000000 )
                  ( -1.0000001  0.0000000  0.0000000 )
                  (  0.0000000  0.0000000 -1.0000000 )


      isym =  7      90 deg rotation - cart. axis [0,0,-1]       

 cryst.   s( 7) = (     0         -1          0      )
                  (     1          0          0      )
                  (     0          0          1      )

 cart.    s( 7) = (  0.0000000  0.9999999  0.0000000 )
                  ( -1.0000001  0.0000000  0.0000000 )
                  (  0.0000000  0.0000000  1.0000000 )


      isym =  8      90 deg rotation - cart. axis [0,0,1]        

 cryst.   s( 8) = (     0          1          0      )
                  (    -1          0          0      )
                  (     0          0          1      )

 cart.    s( 8) = (  0.0000000 -0.9999999  0.0000000 )
                  (  1.0000001  0.0000000  0.0000000 )
                  (  0.0000000  0.0000000  1.0000000 )


      isym =  9     180 deg rotation - cart. axis [1,0,1]        

 cryst.   s( 9) = (     0          0          1      )
                  (     0         -1          0      )
                  (     1          0          0      )

 cart.    s( 9) = (  0.0000000  0.0000000  0.9999999 )
                  (  0.0000000 -1.0000000  0.0000000 )
                  (  1.0000001  0.0000000  0.0000000 )


      isym = 10     180 deg rotation - cart. axis [-1,0,1]       

 cryst.   s(10) = (     0          0         -1      )
                  (     0         -1          0      )
                  (    -1          0          0      )

 cart.    s(10) = (  0.0000000  0.0000000 -0.9999999 )
                  (  0.0000000 -1.0000000  0.0000000 )
                  ( -1.0000001  0.0000000  0.0000000 )


      isym = 11      90 deg rotation - cart. axis [0,1,0]        

 cryst.   s(11) = (     0          0         -1      )
                  (     0          1          0      )
                  (     1          0          0      )

 cart.    s(11) = (  0.0000000  0.0000000  0.9999999 )
                  (  0.0000000  1.0000000  0.0000000 )
                  ( -1.0000001  0.0000000  0.0000000 )


      isym = 12      90 deg rotation - cart. axis [0,-1,0]       

 cryst.   s(12) = (     0          0          1      )
                  (     0          1          0      )
                  (    -1          0          0      )

 cart.    s(12) = (  0.0000000  0.0000000 -0.9999999 )
                  (  0.0000000  1.0000000  0.0000000 )
                  (  1.0000001  0.0000000  0.0000000 )


      isym = 13     180 deg rotation - cart. axis [0,1,1]        

 cryst.   s(13) = (    -1          0          0      )
                  (     0          0          1      )
                  (     0          1          0      )

 cart.    s(13) = ( -1.0000000  0.0000000  0.0000000 )
                  (  0.0000000  0.0000000  1.0000000 )
                  (  0.0000000  1.0000000  0.0000000 )


      isym = 14     180 deg rotation - cart. axis [0,1,-1]       

 cryst.   s(14) = (    -1          0          0      )
                  (     0          0         -1      )
                  (     0         -1          0      )

 cart.    s(14) = ( -1.0000000  0.0000000  0.0000000 )
                  (  0.0000000  0.0000000 -1.0000000 )
                  (  0.0000000 -1.0000000  0.0000000 )


      isym = 15      90 deg rotation - cart. axis [-1,0,0]       

 cryst.   s(15) = (     1          0          0      )
                  (     0          0         -1      )
                  (     0          1          0      )

 cart.    s(15) = (  1.0000000  0.0000000  0.0000000 )
                  (  0.0000000  0.0000000  1.0000000 )
                  (  0.0000000 -1.0000000  0.0000000 )


      isym = 16      90 deg rotation - cart. axis [1,0,0]        

 cryst.   s(16) = (     1          0          0      )
                  (     0          0          1      )
                  (     0         -1          0      )

 cart.    s(16) = (  1.0000000  0.0000000  0.0000000 )
                  (  0.0000000  0.0000000 -1.0000000 )
                  (  0.0000000  1.0000000  0.0000000 )


      isym = 17     120 deg rotation - cart. axis [-1,-1,-1]     

 cryst.   s(17) = (     0          0          1      )
                  (     1          0          0      )
                  (     0          1          0      )

 cart.    s(17) = (  0.0000000  0.9999999  0.0000000 )
                  (  0.0000000  0.0000000  1.0000000 )
                  (  1.0000001  0.0000000  0.0000000 )


      isym = 18     120 deg rotation - cart. axis [-1,1,1]       

 cryst.   s(18) = (     0          0         -1      )
                  (    -1          0          0      )
                  (     0          1          0      )

 cart.    s(18) = (  0.0000000 -0.9999999  0.0000000 )
                  (  0.0000000  0.0000000  1.0000000 )
                  ( -1.0000001  0.0000000  0.0000000 )


      isym = 19     120 deg rotation - cart. axis [1,1,-1]       

 cryst.   s(19) = (     0          0         -1      )
                  (     1          0          0      )
                  (     0         -1          0      )

 cart.    s(19) = (  0.0000000  0.9999999  0.0000000 )
                  (  0.0000000  0.0000000 -1.0000000 )
                  ( -1.0000001  0.0000000  0.0000000 )


      isym = 20     120 deg rotation - cart. axis [1,-1,1]       

 cryst.   s(20) = (     0          0          1      )
                  (    -1          0          0      )
                  (     0         -1          0      )

 cart.    s(20) = (  0.0000000 -0.9999999  0.0000000 )
                  (  0.0000000  0.0000000 -1.0000000 )
                  (  1.0000001  0.0000000  0.0000000 )


      isym = 21     120 deg rotation - cart. axis [1,1,1]        

 cryst.   s(21) = (     0          1          0      )
                  (     0          0          1      )
                  (     1          0          0      )

 cart.    s(21) = (  0.0000000  0.0000000  0.9999999 )
                  (  1.0000001  0.0000000  0.0000000 )
                  (  0.0000000  1.0000000  0.0000000 )


      isym = 22     120 deg rotation - cart. axis [-1,1,-1]      

 cryst.   s(22) = (     0         -1          0      )
                  (     0          0         -1      )
                  (     1          0          0      )

 cart.    s(22) = (  0.0000000  0.0000000  0.9999999 )
                  ( -1.0000001  0.0000000  0.0000000 )
                  (  0.0000000 -1.0000000  0.0000000 )


      isym = 23     120 deg rotation - cart. axis [1,-1,-1]      

 cryst.   s(23) = (     0         -1          0      )
                  (     0          0          1      )
                  (    -1          0          0      )

 cart.    s(23) = (  0.0000000  0.0000000 -0.9999999 )
                  ( -1.0000001  0.0000000  0.0000000 )
                  (  0.0000000  1.0000000  0.0000000 )


      isym = 24     120 deg rotation - cart. axis [-1,-1,1]      

 cryst.   s(24) = (     0          1          0      )
                  (     0          0         -1      )
                  (    -1          0          0      )

 cart.    s(24) = (  0.0000000  0.0000000 -0.9999999 )
                  (  1.0000001  0.0000000  0.0000000 )
                  (  0.0000000 -1.0000000  0.0000000 )


      isym = 25     inversion                                    

 cryst.   s(25) = (    -1          0          0      )
                  (     0         -1          0      )
                  (     0          0         -1      )

 cart.    s(25) = ( -1.0000000  0.0000000  0.0000000 )
                  (  0.0000000 -1.0000000  0.0000000 )
                  (  0.0000000  0.0000000 -1.0000000 )


      isym = 26     inv. 180 deg rotation - cart. axis [0,0,1]   

 cryst.   s(26) = (     1          0          0      )
                  (     0          1          0      )
                  (     0          0         -1      )

 cart.    s(26) = (  1.0000000  0.0000000  0.0000000 )
                  (  0.0000000  1.0000000  0.0000000 )
                  (  0.0000000  0.0000000 -1.0000000 )


      isym = 27     inv. 180 deg rotation - cart. axis [0,1,0]   

 cryst.   s(27) = (     1          0          0      )
                  (     0         -1          0      )
                  (     0          0          1      )

 cart.    s(27) = (  1.0000000  0.0000000  0.0000000 )
                  (  0.0000000 -1.0000000  0.0000000 )
                  (  0.0000000  0.0000000  1.0000000 )


      isym = 28     inv. 180 deg rotation - cart. axis [1,0,0]   

 cryst.   s(28) = (    -1          0          0      )
                  (     0          1          0      )
                  (     0          0          1      )

 cart.    s(28) = ( -1.0000000  0.0000000  0.0000000 )
                  (  0.0000000  1.0000000  0.0000000 )
                  (  0.0000000  0.0000000  1.0000000 )


      isym = 29     inv. 180 deg rotation - cart. axis [1,1,0]   

 cryst.   s(29) = (     0         -1          0      )
                  (    -1          0          0      )
                  (     0          0          1      )

 cart.    s(29) = (  0.0000000 -0.9999999  0.0000000 )
                  ( -1.0000001  0.0000000  0.0000000 )
                  (  0.0000000  0.0000000  1.0000000 )


      isym = 30     inv. 180 deg rotation - cart. axis [1,-1,0]  

 cryst.   s(30) = (     0          1          0      )
                  (     1          0          0      )
                  (     0          0          1      )

 cart.    s(30) = (  0.0000000  0.9999999  0.0000000 )
                  (  1.0000001  0.0000000  0.0000000 )
                  (  0.0000000  0.0000000  1.0000000 )


      isym = 31     inv.  90 deg rotation - cart. axis [0,0,-1]  

 cryst.   s(31) = (     0          1          0      )
                  (    -1          0          0      )
                  (     0          0         -1      )

 cart.    s(31) = (  0.0000000 -0.9999999  0.0000000 )
                  (  1.0000001  0.0000000  0.0000000 )
                  (  0.0000000  0.0000000 -1.0000000 )


      isym = 32     inv.  90 deg rotation - cart. axis [0,0,1]   

 cryst.   s(32) = (     0         -1          0      )
                  (     1          0          0      )
                  (     0          0         -1      )

 cart.    s(32) = (  0.0000000  0.9999999  0.0000000 )
                  ( -1.0000001  0.0000000  0.0000000 )
                  (  0.0000000  0.0000000 -1.0000000 )


      isym = 33     inv. 180 deg rotation - cart. axis [1,0,1]   

 cryst.   s(33) = (     0          0         -1      )
                  (     0          1          0      )
                  (    -1          0          0      )

 cart.    s(33) = (  0.0000000  0.0000000 -0.9999999 )
                  (  0.0000000  1.0000000  0.0000000 )
                  ( -1.0000001  0.0000000  0.0000000 )


      isym = 34     inv. 180 deg rotation - cart. axis [-1,0,1]  

 cryst.   s(34) = (     0          0          1      )
                  (     0          1          0      )
                  (     1          0          0      )

 cart.    s(34) = (  0.0000000  0.0000000  0.9999999 )
                  (  0.0000000  1.0000000  0.0000000 )
                  (  1.0000001  0.0000000  0.0000000 )


      isym = 35     inv.  90 deg rotation - cart. axis [0,1,0]   

 cryst.   s(35) = (     0          0          1      )
                  (     0         -1          0      )
                  (    -1          0          0      )

 cart.    s(35) = (  0.0000000  0.0000000 -0.9999999 )
                  (  0.0000000 -1.0000000  0.0000000 )
                  (  1.0000001  0.0000000  0.0000000 )


      isym = 36     inv.  90 deg rotation - cart. axis [0,-1,0]  

 cryst.   s(36) = (     0          0         -1      )
                  (     0         -1          0      )
                  (     1          0          0      )

 cart.    s(36) = (  0.0000000  0.0000000  0.9999999 )
                  (  0.0000000 -1.0000000  0.0000000 )
                  ( -1.0000001  0.0000000  0.0000000 )


      isym = 37     inv. 180 deg rotation - cart. axis [0,1,1]   

 cryst.   s(37) = (     1          0          0      )
                  (     0          0         -1      )
                  (     0         -1          0      )

 cart.    s(37) = (  1.0000000  0.0000000  0.0000000 )
                  (  0.0000000  0.0000000 -1.0000000 )
                  (  0.0000000 -1.0000000  0.0000000 )


      isym = 38     inv. 180 deg rotation - cart. axis [0,1,-1]  

 cryst.   s(38) = (     1          0          0      )
                  (     0          0          1      )
                  (     0          1          0      )

 cart.    s(38) = (  1.0000000  0.0000000  0.0000000 )
                  (  0.0000000  0.0000000  1.0000000 )
                  (  0.0000000  1.0000000  0.0000000 )


      isym = 39     inv.  90 deg rotation - cart. axis [-1,0,0]  

 cryst.   s(39) = (    -1          0          0      )
                  (     0          0          1      )
                  (     0         -1          0      )

 cart.    s(39) = ( -1.0000000  0.0000000  0.0000000 )
                  (  0.0000000  0.0000000 -1.0000000 )
                  (  0.0000000  1.0000000  0.0000000 )


      isym = 40     inv.  90 deg rotation - cart. axis [1,0,0]   

 cryst.   s(40) = (    -1          0          0      )
                  (     0          0         -1      )
                  (     0          1          0      )

 cart.    s(40) = ( -1.0000000  0.0000000  0.0000000 )
                  (  0.0000000  0.0000000  1.0000000 )
                  (  0.0000000 -1.0000000  0.0000000 )


      isym = 41     inv. 120 deg rotation - cart. axis [-1,-1,-1]

 cryst.   s(41) = (     0          0         -1      )
                  (    -1          0          0      )
                  (     0         -1          0      )

 cart.    s(41) = (  0.0000000 -0.9999999  0.0000000 )
                  (  0.0000000  0.0000000 -1.0000000 )
                  ( -1.0000001  0.0000000  0.0000000 )


      isym = 42     inv. 120 deg rotation - cart. axis [-1,1,1]  

 cryst.   s(42) = (     0          0          1      )
                  (     1          0          0      )
                  (     0         -1          0      )

 cart.    s(42) = (  0.0000000  0.9999999  0.0000000 )
                  (  0.0000000  0.0000000 -1.0000000 )
                  (  1.0000001  0.0000000  0.0000000 )


      isym = 43     inv. 120 deg rotation - cart. axis [1,1,-1]  

 cryst.   s(43) = (     0          0          1      )
                  (    -1          0          0      )
                  (     0          1          0      )

 cart.    s(43) = (  0.0000000 -0.9999999  0.0000000 )
                  (  0.0000000  0.0000000  1.0000000 )
                  (  1.0000001  0.0000000  0.0000000 )


      isym = 44     inv. 120 deg rotation - cart. axis [1,-1,1]  

 cryst.   s(44) = (     0          0         -1      )
                  (     1          0          0      )
                  (     0          1          0      )

 cart.    s(44) = (  0.0000000  0.9999999  0.0000000 )
                  (  0.0000000  0.0000000  1.0000000 )
                  ( -1.0000001  0.0000000  0.0000000 )


      isym = 45     inv. 120 deg rotation - cart. axis [1,1,1]   

 cryst.   s(45) = (     0         -1          0      )
                  (     0          0         -1      )
                  (    -1          0          0      )

 cart.    s(45) = (  0.0000000  0.0000000 -0.9999999 )
                  ( -1.0000001  0.0000000  0.0000000 )
                  (  0.0000000 -1.0000000  0.0000000 )


      isym = 46     inv. 120 deg rotation - cart. axis [-1,1,-1] 

 cryst.   s(46) = (     0          1          0      )
                  (     0          0          1      )
                  (    -1          0          0      )

 cart.    s(46) = (  0.0000000  0.0000000 -0.9999999 )
                  (  1.0000001  0.0000000  0.0000000 )
                  (  0.0000000  1.0000000  0.0000000 )


      isym = 47     inv. 120 deg rotation - cart. axis [1,-1,-1] 

 cryst.   s(47) = (     0          1          0      )
                  (     0          0         -1      )
                  (     1          0          0      )

 cart.    s(47) = (  0.0000000  0.0000000  0.9999999 )
                  (  1.0000001  0.0000000  0.0000000 )
                  (  0.0000000 -1.0000000  0.0000000 )


      isym = 48     inv. 120 deg rotation - cart. axis [-1,-1,1] 

 cryst.   s(48) = (     0         -1          0      )
                  (     0          0          1      )
                  (     1          0          0      )

 cart.    s(48) = (  0.0000000  0.0000000  0.9999999 )
                  ( -1.0000001  0.0000000  0.0000000 )
                  (  0.0000000  1.0000000  0.0000000 )


   Cartesian axes

     site n.     atom                  positions (alat units)
         1           U   tau(   1) = (   0.0000000   0.0000000   0.0000000  )
         2           U   tau(   2) = (   0.5000000   0.5000000   0.0000000  )
         3           U   tau(   3) = (   0.5000000   0.0000000   0.5000000  )
         4           U   tau(   4) = (   0.0000000   0.5000000   0.5000000  )

   Crystallographic axes

     site n.     atom                  positions (cryst. coord.)
         1           U   tau(   1) = (  0.0000000  0.0000000  0.0000000  )
         2           U   tau(   2) = (  0.5000000  0.5000000  0.0000000  )
         3           U   tau(   3) = (  0.5000000  0.0000000  0.5000000  )
         4           U   tau(   4) = (  0.0000000  0.5000000  0.5000000  )

     number of k points=    20  Marzari-Vanderbilt smearing, width (Ry)=  0.0500
                       cart. coord. in units 2pi/alat
        k(    1) = (   0.0000000   0.0000000   0.0000000), wk =   0.0046296
        k(    2) = (   0.0000000   0.0000000   0.1666667), wk =   0.0277778
        k(    3) = (   0.0000000   0.0000000   0.3333333), wk =   0.0277778
        k(    4) = (   0.0000000   0.0000000  -0.5000000), wk =   0.0138889
        k(    5) = (   0.0000000   0.1666667   0.1666667), wk =   0.0555556
        k(    6) = (   0.0000000   0.1666667   0.3333333), wk =   0.1111111
        k(    7) = (   0.0000000   0.1666667  -0.5000000), wk =   0.0555556
        k(    8) = (   0.0000000   0.3333333   0.3333333), wk =   0.0555556
        k(    9) = (   0.0000000   0.3333333  -0.5000000), wk =   0.0555556
        k(   10) = (   0.0000000  -0.5000000  -0.5000000), wk =   0.0138889
        k(   11) = (   0.1666667   0.1666667   0.1666667), wk =   0.0370370
        k(   12) = (   0.1666667   0.1666667   0.3333333), wk =   0.1111111
        k(   13) = (   0.1666667   0.1666667  -0.5000000), wk =   0.0555556
        k(   14) = (   0.1666667   0.3333333   0.3333333), wk =   0.1111111
        k(   15) = (   0.1666667   0.3333333  -0.5000000), wk =   0.1111111
        k(   16) = (   0.1666667  -0.5000000  -0.5000000), wk =   0.0277778
        k(   17) = (   0.3333333   0.3333333   0.3333333), wk =   0.0370370
        k(   18) = (   0.3333333   0.3333333  -0.5000000), wk =   0.0555556
        k(   19) = (   0.3333333  -0.5000000  -0.5000000), wk =   0.0277778
        k(   20) = (  -0.5000000  -0.5000000  -0.5000000), wk =   0.0046296

                       cryst. coord.
        k(    1) = (   0.0000000   0.0000000   0.0000000), wk =   0.0046296
        k(    2) = (   0.0000000   0.0000000   0.1666667), wk =   0.0277778
        k(    3) = (   0.0000000   0.0000000   0.3333333), wk =   0.0277778
        k(    4) = (   0.0000000   0.0000000  -0.5000000), wk =   0.0138889
        k(    5) = (   0.0000000   0.1666667   0.1666667), wk =   0.0555556
        k(    6) = (   0.0000000   0.1666667   0.3333333), wk =   0.1111111
        k(    7) = (   0.0000000   0.1666667  -0.5000000), wk =   0.0555556
        k(    8) = (   0.0000000   0.3333333   0.3333333), wk =   0.0555556
        k(    9) = (   0.0000000   0.3333333  -0.5000000), wk =   0.0555556
        k(   10) = (   0.0000000  -0.5000000  -0.5000000), wk =   0.0138889
        k(   11) = (   0.1666667   0.1666667   0.1666667), wk =   0.0370370
        k(   12) = (   0.1666667   0.1666667   0.3333333), wk =   0.1111111
        k(   13) = (   0.1666667   0.1666667  -0.5000000), wk =   0.0555556
        k(   14) = (   0.1666667   0.3333333   0.3333333), wk =   0.1111111
        k(   15) = (   0.1666667   0.3333333  -0.5000000), wk =   0.1111111
        k(   16) = (   0.1666667  -0.5000000  -0.5000000), wk =   0.0277778
        k(   17) = (   0.3333333   0.3333333   0.3333333), wk =   0.0370370
        k(   18) = (   0.3333333   0.3333333  -0.5000000), wk =   0.0555556
        k(   19) = (   0.3333333  -0.5000000  -0.5000000), wk =   0.0277778
        k(   20) = (  -0.5000000  -0.5000000  -0.5000000), wk =   0.0046296

     Dense  grid:   295667 G-vectors     FFT dimensions: (  90,  90,  90)

     Smooth grid:   104415 G-vectors     FFT dimensions: (  60,  60,  60)

     Dynamical RAM for                 wfc:       0.20 MB

     Dynamical RAM for     wfc (w. buffer):       8.15 MB

     Dynamical RAM for           str. fact:       0.14 MB

     Dynamical RAM for           local pot:       0.00 MB

     Dynamical RAM for          nlocal pot:       0.79 MB

     Dynamical RAM for                qrad:       5.96 MB

     Dynamical RAM for          rho,v,vnew:       1.96 MB

     Dynamical RAM for               rhoin:       0.65 MB

     Dynamical RAM for            rho*nmix:       4.51 MB

     Dynamical RAM for           G-vectors:       0.55 MB

     Dynamical RAM for          h,s,v(r/c):       0.19 MB

     Dynamical RAM for          <psi|beta>:       0.06 MB

     Dynamical RAM for                 psi:       0.40 MB

     Dynamical RAM for                hpsi:       0.40 MB

     Dynamical RAM for                spsi:       0.40 MB

     Dynamical RAM for      wfcinit/wfcrot:       0.42 MB

     Dynamical RAM for           addusdens:      78.94 MB

     Dynamical RAM for          addusforce:      79.88 MB

     Dynamical RAM for         addusstress:      82.25 MB

     Estimated static dynamical RAM per process >      19.61 MB

     Estimated max dynamical RAM per process >     106.37 MB

     Estimated total dynamical RAM >       3.32 GB
     Generating pointlists ...
     new r_m :   0.2917 (alat units)  2.4436 (a.u.) for type    1

     Initial potential from superposition of free atoms

     starting charge   55.98204, renormalised to   56.00000
     Starting wfcs are random

     total cpu time spent up to now is        5.0 secs

     Self-consistent Calculation

     iteration #  1     ecut=   120.00 Ry     beta= 0.50
     Davidson diagonalization with overlap

---- Real-time Memory Report at c_bands before calling an iterative solver
           116 MiB given to the printing process from OS
             0 MiB allocation reported by mallinfo(arena+hblkhd)
         31147 MiB available memory on the node where the printing process lives
------------------
     ethr =  1.00E-02,  avg # of iterations = 11.3

     total cpu time spent up to now is       25.2 secs

     total energy              =    -516.16471913 Ry
     estimated scf accuracy    <       1.79420775 Ry

     total magnetization       =     2.41 Bohr mag/cell
     absolute magnetization    =     2.41 Bohr mag/cell

     iteration #  2     ecut=   120.00 Ry     beta= 0.50
     Davidson diagonalization with overlap

---- Real-time Memory Report at c_bands before calling an iterative solver
           127 MiB given to the printing process from OS
             0 MiB allocation reported by mallinfo(arena+hblkhd)
         30923 MiB available memory on the node where the printing process lives
------------------
     ethr =  3.20E-03,  avg # of iterations =  6.7

     total cpu time spent up to now is       37.7 secs

     total energy              =    -517.13866375 Ry
     estimated scf accuracy    <       1.64112518 Ry

     total magnetization       =     2.74 Bohr mag/cell
     absolute magnetization    =     2.74 Bohr mag/cell

     iteration #  3     ecut=   120.00 Ry     beta= 0.50
     Davidson diagonalization with overlap

---- Real-time Memory Report at c_bands before calling an iterative solver
           127 MiB given to the printing process from OS
             0 MiB allocation reported by mallinfo(arena+hblkhd)
         30920 MiB available memory on the node where the printing process lives
------------------
     ethr =  2.93E-03,  avg # of iterations =  2.0

     total cpu time spent up to now is       45.3 secs

     total energy              =    -517.31349448 Ry
     estimated scf accuracy    <       0.21682255 Ry

     total magnetization       =     2.04 Bohr mag/cell
     absolute magnetization    =     2.04 Bohr mag/cell

     iteration #  4     ecut=   120.00 Ry     beta= 0.50
     Davidson diagonalization with overlap

---- Real-time Memory Report at c_bands before calling an iterative solver
           127 MiB given to the printing process from OS
             0 MiB allocation reported by mallinfo(arena+hblkhd)
         30911 MiB available memory on the node where the printing process lives
------------------
     c_bands:  2 eigenvalues not converged
     c_bands:  2 eigenvalues not converged
     c_bands:  3 eigenvalues not converged
     c_bands:  1 eigenvalues not converged
     c_bands:  1 eigenvalues not converged
     c_bands:  2 eigenvalues not converged
     c_bands:  2 eigenvalues not converged
     c_bands:  3 eigenvalues not converged
     c_bands:  1 eigenvalues not converged
     c_bands:  3 eigenvalues not converged
     c_bands:  4 eigenvalues not converged
     c_bands:  1 eigenvalues not converged
     c_bands:  1 eigenvalues not converged
     c_bands:  1 eigenvalues not converged
     c_bands:  2 eigenvalues not converged
     c_bands:  1 eigenvalues not converged
     c_bands:  1 eigenvalues not converged
     c_bands:  1 eigenvalues not converged
     c_bands:  3 eigenvalues not converged
     c_bands:  2 eigenvalues not converged
     c_bands:  3 eigenvalues not converged
     c_bands:  1 eigenvalues not converged
     ethr =  3.87E-04,  avg # of iterations = 17.6

     total cpu time spent up to now is       60.6 secs

     total energy              =    -517.43415598 Ry
     estimated scf accuracy    <       0.27602102 Ry

     total magnetization       =     2.30 Bohr mag/cell
     absolute magnetization    =     2.31 Bohr mag/cell

     iteration #  5     ecut=   120.00 Ry     beta= 0.50
     Davidson diagonalization with overlap

---- Real-time Memory Report at c_bands before calling an iterative solver
           127 MiB given to the printing process from OS
             0 MiB allocation reported by mallinfo(arena+hblkhd)
         30912 MiB available memory on the node where the printing process lives
------------------
     c_bands:  1 eigenvalues not converged
     c_bands:  2 eigenvalues not converged
     ethr =  3.87E-04,  avg # of iterations =  5.8

     total cpu time spent up to now is       68.7 secs

     total energy              =    -517.44898839 Ry
     estimated scf accuracy    <       0.04139449 Ry

     total magnetization       =     1.99 Bohr mag/cell
     absolute magnetization    =     1.99 Bohr mag/cell

     iteration #  6     ecut=   120.00 Ry     beta= 0.50
     Davidson diagonalization with overlap

---- Real-time Memory Report at c_bands before calling an iterative solver
           127 MiB given to the printing process from OS
             0 MiB allocation reported by mallinfo(arena+hblkhd)
         30905 MiB available memory on the node where the printing process lives
------------------
     c_bands:  1 eigenvalues not converged
     c_bands:  4 eigenvalues not converged
     c_bands:  2 eigenvalues not converged
     c_bands:  2 eigenvalues not converged
     c_bands:  3 eigenvalues not converged
     c_bands:  2 eigenvalues not converged
     c_bands:  2 eigenvalues not converged
     c_bands:  2 eigenvalues not converged
     c_bands:  3 eigenvalues not converged
     c_bands:  5 eigenvalues not converged
     c_bands:  4 eigenvalues not converged
     c_bands:  1 eigenvalues not converged
     c_bands:  2 eigenvalues not converged
     c_bands:  5 eigenvalues not converged
     c_bands:  4 eigenvalues not converged
     c_bands:  4 eigenvalues not converged
     c_bands:  2 eigenvalues not converged
     c_bands:  4 eigenvalues not converged
     c_bands:  3 eigenvalues not converged
     c_bands:  2 eigenvalues not converged
     c_bands:  5 eigenvalues not converged
     c_bands:  2 eigenvalues not converged
     c_bands:  5 eigenvalues not converged
     c_bands:  2 eigenvalues not converged
     c_bands:  2 eigenvalues not converged
     c_bands:  3 eigenvalues not converged
     c_bands:  2 eigenvalues not converged
     c_bands:  4 eigenvalues not converged
     c_bands:  1 eigenvalues not converged
     c_bands:  4 eigenvalues not converged
     c_bands:  5 eigenvalues not converged
     c_bands:  2 eigenvalues not converged
     c_bands:  2 eigenvalues not converged
     c_bands:  5 eigenvalues not converged
     c_bands:  2 eigenvalues not converged
     c_bands:  4 eigenvalues not converged
     ethr =  7.39E-05,  avg # of iterations = 21.2

     total cpu time spent up to now is       89.0 secs

     total energy              =    -517.47943685 Ry
     estimated scf accuracy    <       1.56466101 Ry

     total magnetization       =     1.58 Bohr mag/cell
     absolute magnetization    =     1.59 Bohr mag/cell

     iteration #  7     ecut=   120.00 Ry     beta= 0.50
     Davidson diagonalization with overlap

---- Real-time Memory Report at c_bands before calling an iterative solver
           128 MiB given to the printing process from OS
             0 MiB allocation reported by mallinfo(arena+hblkhd)
         30902 MiB available memory on the node where the printing process lives
------------------
     c_bands:  1 eigenvalues not converged
     c_bands:  1 eigenvalues not converged
     c_bands:  1 eigenvalues not converged
     c_bands:  2 eigenvalues not converged
     c_bands:  2 eigenvalues not converged
     c_bands:  2 eigenvalues not converged
     c_bands:  1 eigenvalues not converged
     c_bands:  1 eigenvalues not converged
     c_bands:  1 eigenvalues not converged
     ethr =  7.39E-05,  avg # of iterations = 14.2

     total cpu time spent up to now is      100.3 secs

     total energy              =    -517.47370879 Ry
     estimated scf accuracy    <       0.49171168 Ry

     total magnetization       =     1.69 Bohr mag/cell
     absolute magnetization    =     1.70 Bohr mag/cell

     iteration #  8     ecut=   120.00 Ry     beta= 0.50
     Davidson diagonalization with overlap

---- Real-time Memory Report at c_bands before calling an iterative solver
           128 MiB given to the printing process from OS
             0 MiB allocation reported by mallinfo(arena+hblkhd)
         30895 MiB available memory on the node where the printing process lives
------------------
     c_bands:  1 eigenvalues not converged
     c_bands:  1 eigenvalues not converged
     c_bands:  1 eigenvalues not converged
     c_bands:  2 eigenvalues not converged
     ethr =  7.39E-05,  avg # of iterations = 11.2

     total cpu time spent up to now is      111.0 secs

     total energy              =    -517.48573090 Ry
     estimated scf accuracy    <       0.02834504 Ry

     total magnetization       =     1.67 Bohr mag/cell
     absolute magnetization    =     1.69 Bohr mag/cell

     iteration #  9     ecut=   120.00 Ry     beta= 0.50
     Davidson diagonalization with overlap

---- Real-time Memory Report at c_bands before calling an iterative solver
           128 MiB given to the printing process from OS
             0 MiB allocation reported by mallinfo(arena+hblkhd)
         30889 MiB available memory on the node where the printing process lives
------------------
     c_bands:  1 eigenvalues not converged
     ethr =  5.06E-05,  avg # of iterations =  7.5

     total cpu time spent up to now is      119.4 secs

     total energy              =    -517.48908624 Ry
     estimated scf accuracy    <       0.00012557 Ry

     total magnetization       =     1.64 Bohr mag/cell
     absolute magnetization    =     1.66 Bohr mag/cell

     iteration # 10     ecut=   120.00 Ry     beta= 0.50
     Davidson diagonalization with overlap

---- Real-time Memory Report at c_bands before calling an iterative solver
           129 MiB given to the printing process from OS
             0 MiB allocation reported by mallinfo(arena+hblkhd)
         30883 MiB available memory on the node where the printing process lives
------------------
     c_bands:  4 eigenvalues not converged
     c_bands:  1 eigenvalues not converged
     c_bands:  1 eigenvalues not converged
     c_bands:  2 eigenvalues not converged
     c_bands:  2 eigenvalues not converged
     c_bands:  5 eigenvalues not converged
     c_bands:  5 eigenvalues not converged
     c_bands:  5 eigenvalues not converged
     c_bands:  5 eigenvalues not converged
     c_bands:  4 eigenvalues not converged
     c_bands:  4 eigenvalues not converged
     c_bands:  4 eigenvalues not converged
     c_bands:  4 eigenvalues not converged
     c_bands:  5 eigenvalues not converged
     c_bands:  1 eigenvalues not converged
     c_bands:  1 eigenvalues not converged
     c_bands:  1 eigenvalues not converged
     c_bands:  2 eigenvalues not converged
     c_bands:  5 eigenvalues not converged
     c_bands:  1 eigenvalues not converged
     c_bands:  3 eigenvalues not converged
     c_bands:  5 eigenvalues not converged
     c_bands:  4 eigenvalues not converged
     c_bands:  4 eigenvalues not converged
     c_bands:  4 eigenvalues not converged
     c_bands:  4 eigenvalues not converged
     c_bands:  2 eigenvalues not converged
     c_bands:  3 eigenvalues not converged
     c_bands:  3 eigenvalues not converged
     c_bands:  3 eigenvalues not converged
     c_bands:  4 eigenvalues not converged
     c_bands:  5 eigenvalues not converged
     c_bands:  5 eigenvalues not converged
     c_bands:  2 eigenvalues not converged
     c_bands:  2 eigenvalues not converged
     ethr =  2.24E-07,  avg # of iterations = 29.8

     total cpu time spent up to now is      151.5 secs

     total energy              =    -517.49306481 Ry
     estimated scf accuracy    <       0.04493424 Ry

     total magnetization       =     1.59 Bohr mag/cell
     absolute magnetization    =     1.62 Bohr mag/cell

     iteration # 11     ecut=   120.00 Ry     beta= 0.50
     Davidson diagonalization with overlap

---- Real-time Memory Report at c_bands before calling an iterative solver
           129 MiB given to the printing process from OS
             0 MiB allocation reported by mallinfo(arena+hblkhd)
         30889 MiB available memory on the node where the printing process lives
------------------
     c_bands:  2 eigenvalues not converged
     c_bands:  1 eigenvalues not converged
     c_bands:  1 eigenvalues not converged
     c_bands:  2 eigenvalues not converged
     c_bands:  3 eigenvalues not converged
     c_bands:  2 eigenvalues not converged
     c_bands:  4 eigenvalues not converged
     c_bands:  4 eigenvalues not converged
     c_bands:  3 eigenvalues not converged
     c_bands:  2 eigenvalues not converged
     c_bands:  2 eigenvalues not converged
     c_bands:  4 eigenvalues not converged
     c_bands:  2 eigenvalues not converged
     c_bands:  2 eigenvalues not converged
     c_bands:  1 eigenvalues not converged
     c_bands:  2 eigenvalues not converged
     c_bands:  3 eigenvalues not converged
     c_bands:  2 eigenvalues not converged
     c_bands:  2 eigenvalues not converged
     c_bands:  4 eigenvalues not converged
     c_bands:  1 eigenvalues not converged
     c_bands:  2 eigenvalues not converged
     c_bands:  1 eigenvalues not converged
     c_bands:  1 eigenvalues not converged
     c_bands:  2 eigenvalues not converged
     c_bands:  2 eigenvalues not converged
     ethr =  2.24E-07,  avg # of iterations = 16.6

     total cpu time spent up to now is      164.3 secs

     total energy              =    -517.49182397 Ry
     estimated scf accuracy    <       0.04047438 Ry

     total magnetization       =     1.58 Bohr mag/cell
     absolute magnetization    =     1.61 Bohr mag/cell

     iteration # 12     ecut=   120.00 Ry     beta= 0.50
     Davidson diagonalization with overlap

---- Real-time Memory Report at c_bands before calling an iterative solver
           129 MiB given to the printing process from OS
             0 MiB allocation reported by mallinfo(arena+hblkhd)
         30888 MiB available memory on the node where the printing process lives
------------------
     c_bands:  2 eigenvalues not converged
     c_bands:  1 eigenvalues not converged
     c_bands:  1 eigenvalues not converged
     c_bands:  2 eigenvalues not converged
     c_bands:  1 eigenvalues not converged
     c_bands:  2 eigenvalues not converged
     c_bands:  2 eigenvalues not converged
     c_bands:  4 eigenvalues not converged
     c_bands:  4 eigenvalues not converged
     c_bands:  2 eigenvalues not converged
     c_bands:  2 eigenvalues not converged
     c_bands:  1 eigenvalues not converged
     c_bands:  4 eigenvalues not converged
     c_bands:  2 eigenvalues not converged
     c_bands:  4 eigenvalues not converged
     c_bands:  4 eigenvalues not converged
     c_bands:  2 eigenvalues not converged
     c_bands:  4 eigenvalues not converged
     c_bands:  4 eigenvalues not converged
     c_bands:  2 eigenvalues not converged
     c_bands:  4 eigenvalues not converged
     c_bands:  3 eigenvalues not converged
     c_bands:  5 eigenvalues not converged
     c_bands:  3 eigenvalues not converged
     c_bands:  1 eigenvalues not converged
     c_bands:  4 eigenvalues not converged
     c_bands:  3 eigenvalues not converged
     c_bands:  2 eigenvalues not converged
     c_bands:  1 eigenvalues not converged
     c_bands:  1 eigenvalues not converged
     ethr =  2.24E-07,  avg # of iterations = 19.6

     total cpu time spent up to now is      184.2 secs

     total energy              =    -517.49167877 Ry
     estimated scf accuracy    <       0.00649513 Ry

     total magnetization       =     1.50 Bohr mag/cell
     absolute magnetization    =     1.53 Bohr mag/cell

     iteration # 13     ecut=   120.00 Ry     beta= 0.50
     Davidson diagonalization with overlap

---- Real-time Memory Report at c_bands before calling an iterative solver
           129 MiB given to the printing process from OS
             0 MiB allocation reported by mallinfo(arena+hblkhd)
         30889 MiB available memory on the node where the printing process lives
------------------
     c_bands:  4 eigenvalues not converged
     c_bands:  5 eigenvalues not converged
     c_bands:  3 eigenvalues not converged
     c_bands:  2 eigenvalues not converged
     c_bands:  5 eigenvalues not converged
     c_bands:  4 eigenvalues not converged
     c_bands:  2 eigenvalues not converged
     c_bands:  5 eigenvalues not converged
     c_bands:  4 eigenvalues not converged
     c_bands:  3 eigenvalues not converged
     c_bands:  3 eigenvalues not converged
     c_bands:  3 eigenvalues not converged
     c_bands:  4 eigenvalues not converged
     c_bands:  3 eigenvalues not converged
     c_bands:  2 eigenvalues not converged
     c_bands:  3 eigenvalues not converged
     c_bands:  4 eigenvalues not converged
     c_bands:  5 eigenvalues not converged
     c_bands:  5 eigenvalues not converged
     c_bands:  2 eigenvalues not converged
     c_bands:  4 eigenvalues not converged
     c_bands:  3 eigenvalues not converged
     c_bands:  4 eigenvalues not converged
     c_bands:  4 eigenvalues not converged
     c_bands:  3 eigenvalues not converged
     c_bands:  3 eigenvalues not converged
     c_bands:  5 eigenvalues not converged
     c_bands:  4 eigenvalues not converged
     c_bands:  3 eigenvalues not converged
     c_bands:  5 eigenvalues not converged
     c_bands:  2 eigenvalues not converged
     c_bands:  3 eigenvalues not converged
     c_bands:  1 eigenvalues not converged
     ethr =  2.24E-07,  avg # of iterations = 21.2

     total cpu time spent up to now is      206.8 secs

     total energy              =    -517.49272724 Ry
     estimated scf accuracy    <       0.00930951 Ry

     total magnetization       =     1.42 Bohr mag/cell
     absolute magnetization    =     1.45 Bohr mag/cell

     iteration # 14     ecut=   120.00 Ry     beta= 0.50
     Davidson diagonalization with overlap

---- Real-time Memory Report at c_bands before calling an iterative solver
           129 MiB given to the printing process from OS
             0 MiB allocation reported by mallinfo(arena+hblkhd)
         30892 MiB available memory on the node where the printing process lives
------------------
     c_bands:  1 eigenvalues not converged
     c_bands:  2 eigenvalues not converged
     c_bands:  2 eigenvalues not converged
     c_bands:  4 eigenvalues not converged
     c_bands:  1 eigenvalues not converged
     c_bands:  1 eigenvalues not converged
     c_bands:  2 eigenvalues not converged
     c_bands:  1 eigenvalues not converged
     c_bands:  2 eigenvalues not converged
     c_bands:  2 eigenvalues not converged
     c_bands:  1 eigenvalues not converged
     c_bands:  4 eigenvalues not converged
     c_bands:  3 eigenvalues not converged
     ethr =  2.24E-07,  avg # of iterations = 11.0

     total cpu time spent up to now is      216.2 secs

     total energy              =    -517.49240447 Ry
     estimated scf accuracy    <       0.01027339 Ry

     total magnetization       =     1.39 Bohr mag/cell
     absolute magnetization    =     1.42 Bohr mag/cell

     iteration # 15     ecut=   120.00 Ry     beta= 0.50
     Davidson diagonalization with overlap

---- Real-time Memory Report at c_bands before calling an iterative solver
           129 MiB given to the printing process from OS
             0 MiB allocation reported by mallinfo(arena+hblkhd)
         30892 MiB available memory on the node where the printing process lives
------------------
     c_bands:  1 eigenvalues not converged
     c_bands:  1 eigenvalues not converged
     c_bands:  1 eigenvalues not converged
     c_bands:  1 eigenvalues not converged
     c_bands:  4 eigenvalues not converged
     c_bands:  4 eigenvalues not converged
     c_bands:  2 eigenvalues not converged
     c_bands:  2 eigenvalues not converged
     c_bands:  3 eigenvalues not converged
     c_bands:  2 eigenvalues not converged
     c_bands:  1 eigenvalues not converged
     c_bands:  2 eigenvalues not converged
     c_bands:  1 eigenvalues not converged
     c_bands:  4 eigenvalues not converged
     c_bands:  2 eigenvalues not converged
     c_bands:  1 eigenvalues not converged
     ethr =  2.24E-07,  avg # of iterations = 14.4

     total cpu time spent up to now is      229.4 secs

     total energy              =    -517.49257865 Ry
     estimated scf accuracy    <       0.00362350 Ry

     total magnetization       =     1.29 Bohr mag/cell
     absolute magnetization    =     1.32 Bohr mag/cell

     iteration # 16     ecut=   120.00 Ry     beta= 0.50
     Davidson diagonalization with overlap

---- Real-time Memory Report at c_bands before calling an iterative solver
           129 MiB given to the printing process from OS
             0 MiB allocation reported by mallinfo(arena+hblkhd)
         30891 MiB available memory on the node where the printing process lives
------------------
     c_bands:  1 eigenvalues not converged
     c_bands:  3 eigenvalues not converged
     c_bands:  4 eigenvalues not converged
     c_bands:  1 eigenvalues not converged
     c_bands:  1 eigenvalues not converged
     c_bands:  2 eigenvalues not converged
     c_bands:  1 eigenvalues not converged
     c_bands:  4 eigenvalues not converged
     c_bands:  1 eigenvalues not converged
     ethr =  2.24E-07,  avg # of iterations =  5.5

     total cpu time spent up to now is      237.0 secs

     total energy              =    -517.49253340 Ry
     estimated scf accuracy    <       0.00389514 Ry

     total magnetization       =     1.28 Bohr mag/cell
     absolute magnetization    =     1.31 Bohr mag/cell

     iteration # 17     ecut=   120.00 Ry     beta= 0.50
     Davidson diagonalization with overlap

---- Real-time Memory Report at c_bands before calling an iterative solver
           129 MiB given to the printing process from OS
             0 MiB allocation reported by mallinfo(arena+hblkhd)
         30891 MiB available memory on the node where the printing process lives
------------------
     c_bands:  1 eigenvalues not converged
     c_bands:  1 eigenvalues not converged
     c_bands:  2 eigenvalues not converged
     c_bands:  4 eigenvalues not converged
     c_bands:  2 eigenvalues not converged
     c_bands:  1 eigenvalues not converged
     c_bands:  2 eigenvalues not converged
     c_bands:  3 eigenvalues not converged
     c_bands:  4 eigenvalues not converged
     c_bands:  4 eigenvalues not converged
     c_bands:  1 eigenvalues not converged
     ethr =  2.24E-07,  avg # of iterations = 12.5

     total cpu time spent up to now is      249.4 secs

     total energy              =    -517.49264081 Ry
     estimated scf accuracy    <       0.00726178 Ry

     total magnetization       =     1.06 Bohr mag/cell
     absolute magnetization    =     1.09 Bohr mag/cell

     iteration # 18     ecut=   120.00 Ry     beta= 0.50
     Davidson diagonalization with overlap

---- Real-time Memory Report at c_bands before calling an iterative solver
           129 MiB given to the printing process from OS
             0 MiB allocation reported by mallinfo(arena+hblkhd)
         30889 MiB available memory on the node where the printing process lives
------------------
     c_bands:  1 eigenvalues not converged
     c_bands:  2 eigenvalues not converged
     c_bands:  2 eigenvalues not converged
     c_bands:  2 eigenvalues not converged
     c_bands:  4 eigenvalues not converged
     c_bands:  2 eigenvalues not converged
     ethr =  2.24E-07,  avg # of iterations =  7.2

     total cpu time spent up to now is      257.7 secs

     total energy              =    -517.49222817 Ry
     estimated scf accuracy    <       0.00589315 Ry

     total magnetization       =     1.17 Bohr mag/cell
     absolute magnetization    =     1.20 Bohr mag/cell

     iteration # 19     ecut=   120.00 Ry     beta= 0.50
     Davidson diagonalization with overlap

---- Real-time Memory Report at c_bands before calling an iterative solver
           129 MiB given to the printing process from OS
             0 MiB allocation reported by mallinfo(arena+hblkhd)
         30890 MiB available memory on the node where the printing process lives
------------------
     c_bands:  2 eigenvalues not converged
     c_bands:  2 eigenvalues not converged
     c_bands:  1 eigenvalues not converged
     c_bands:  3 eigenvalues not converged
     c_bands:  2 eigenvalues not converged
     c_bands:  3 eigenvalues not converged
     c_bands:  4 eigenvalues not converged
     c_bands:  5 eigenvalues not converged
     c_bands:  1 eigenvalues not converged
     c_bands:  2 eigenvalues not converged
     c_bands:  4 eigenvalues not converged
     c_bands:  3 eigenvalues not converged
     c_bands:  3 eigenvalues not converged
     c_bands:  1 eigenvalues not converged
     c_bands:  3 eigenvalues not converged
     c_bands:  2 eigenvalues not converged
     c_bands:  1 eigenvalues not converged
     ethr =  2.24E-07,  avg # of iterations = 16.2

     total cpu time spent up to now is      274.1 secs

     total energy              =    -517.49263211 Ry
     estimated scf accuracy    <       0.00002207 Ry

     total magnetization       =     0.99 Bohr mag/cell
     absolute magnetization    =     1.02 Bohr mag/cell

     iteration # 20     ecut=   120.00 Ry     beta= 0.50
     Davidson diagonalization with overlap

---- Real-time Memory Report at c_bands before calling an iterative solver
           130 MiB given to the printing process from OS
             0 MiB allocation reported by mallinfo(arena+hblkhd)
         30890 MiB available memory on the node where the printing process lives
------------------
     c_bands:  5 eigenvalues not converged
     c_bands:  2 eigenvalues not converged
     c_bands:  2 eigenvalues not converged
     c_bands:  4 eigenvalues not converged
     c_bands:  2 eigenvalues not converged
     c_bands:  2 eigenvalues not converged
     c_bands:  4 eigenvalues not converged
     c_bands:  4 eigenvalues not converged
     c_bands:  2 eigenvalues not converged
     c_bands:  2 eigenvalues not converged
     c_bands:  4 eigenvalues not converged
     c_bands:  3 eigenvalues not converged
     c_bands:  2 eigenvalues not converged
     c_bands:  3 eigenvalues not converged
     c_bands:  2 eigenvalues not converged
     c_bands:  1 eigenvalues not converged
     c_bands:  1 eigenvalues not converged
     c_bands:  2 eigenvalues not converged
     c_bands:  4 eigenvalues not converged
     c_bands:  2 eigenvalues not converged
     c_bands:  1 eigenvalues not converged
     c_bands:  2 eigenvalues not converged
     ethr =  3.94E-08,  avg # of iterations = 16.9

     total cpu time spent up to now is      290.3 secs

     total energy              =    -517.49270878 Ry
     estimated scf accuracy    <       0.00008244 Ry

     total magnetization       =     0.90 Bohr mag/cell
     absolute magnetization    =     0.95 Bohr mag/cell

     iteration # 21     ecut=   120.00 Ry     beta= 0.50
     Davidson diagonalization with overlap

---- Real-time Memory Report at c_bands before calling an iterative solver
           130 MiB given to the printing process from OS
             0 MiB allocation reported by mallinfo(arena+hblkhd)
         30881 MiB available memory on the node where the printing process lives
------------------
     c_bands:  2 eigenvalues not converged
     c_bands:  2 eigenvalues not converged
     c_bands:  2 eigenvalues not converged
     c_bands:  4 eigenvalues not converged
     c_bands:  2 eigenvalues not converged
     c_bands:  1 eigenvalues not converged
     c_bands:  1 eigenvalues not converged
     c_bands:  1 eigenvalues not converged
     c_bands:  2 eigenvalues not converged
     c_bands:  4 eigenvalues not converged
     c_bands:  2 eigenvalues not converged
     ethr =  3.94E-08,  avg # of iterations = 11.6

     total cpu time spent up to now is      300.2 secs

     total energy              =    -517.49272969 Ry
     estimated scf accuracy    <       0.00007049 Ry

     total magnetization       =     0.87 Bohr mag/cell
     absolute magnetization    =     0.94 Bohr mag/cell

     iteration # 22     ecut=   120.00 Ry     beta= 0.50
     Davidson diagonalization with overlap

---- Real-time Memory Report at c_bands before calling an iterative solver
           130 MiB given to the printing process from OS
             0 MiB allocation reported by mallinfo(arena+hblkhd)
         30887 MiB available memory on the node where the printing process lives
------------------
     c_bands:  2 eigenvalues not converged
     c_bands:  2 eigenvalues not converged
     c_bands:  1 eigenvalues not converged
     c_bands:  2 eigenvalues not converged
     c_bands:  2 eigenvalues not converged
     c_bands:  4 eigenvalues not converged
     c_bands:  2 eigenvalues not converged
     c_bands:  1 eigenvalues not converged
     c_bands:  3 eigenvalues not converged
     c_bands:  4 eigenvalues not converged
     c_bands:  3 eigenvalues not converged
     c_bands:  1 eigenvalues not converged
     c_bands:  2 eigenvalues not converged
     c_bands:  3 eigenvalues not converged
     c_bands:  2 eigenvalues not converged
     c_bands:  2 eigenvalues not converged
     c_bands:  1 eigenvalues not converged
     c_bands:  1 eigenvalues not converged
     ethr =  3.94E-08,  avg # of iterations = 15.3

     total cpu time spent up to now is      315.8 secs

     total energy              =    -517.49283724 Ry
     estimated scf accuracy    <       0.00054538 Ry

     total magnetization       =     0.76 Bohr mag/cell
     absolute magnetization    =     0.93 Bohr mag/cell

     iteration # 23     ecut=   120.00 Ry     beta= 0.50
     Davidson diagonalization with overlap

---- Real-time Memory Report at c_bands before calling an iterative solver
           130 MiB given to the printing process from OS
             0 MiB allocation reported by mallinfo(arena+hblkhd)
         30888 MiB available memory on the node where the printing process lives
------------------
     c_bands:  1 eigenvalues not converged
     c_bands:  1 eigenvalues not converged
     c_bands:  1 eigenvalues not converged
     c_bands:  2 eigenvalues not converged
     c_bands:  1 eigenvalues not converged
     c_bands:  4 eigenvalues not converged
     c_bands:  2 eigenvalues not converged
     c_bands:  1 eigenvalues not converged
     c_bands:  1 eigenvalues not converged
     c_bands:  1 eigenvalues not converged
     c_bands:  2 eigenvalues not converged
     c_bands:  1 eigenvalues not converged
     c_bands:  3 eigenvalues not converged
     c_bands:  2 eigenvalues not converged
     ethr =  3.94E-08,  avg # of iterations = 11.6

     total cpu time spent up to now is      326.6 secs

     total energy              =    -517.49262789 Ry
     estimated scf accuracy    <       0.00091525 Ry

     total magnetization       =     0.71 Bohr mag/cell
     absolute magnetization    =     0.93 Bohr mag/cell

     iteration # 24     ecut=   120.00 Ry     beta= 0.50
     Davidson diagonalization with overlap

---- Real-time Memory Report at c_bands before calling an iterative solver
           130 MiB given to the printing process from OS
             0 MiB allocation reported by mallinfo(arena+hblkhd)
         30887 MiB available memory on the node where the printing process lives
------------------
     c_bands:  1 eigenvalues not converged
     c_bands:  1 eigenvalues not converged
     c_bands:  2 eigenvalues not converged
     c_bands:  2 eigenvalues not converged
     c_bands:  4 eigenvalues not converged
     c_bands:  2 eigenvalues not converged
     c_bands:  1 eigenvalues not converged
     c_bands:  3 eigenvalues not converged
     c_bands:  3 eigenvalues not converged
     c_bands:  1 eigenvalues not converged
     c_bands:  1 eigenvalues not converged
     c_bands:  2 eigenvalues not converged
     c_bands:  2 eigenvalues not converged
     c_bands:  5 eigenvalues not converged
     c_bands:  4 eigenvalues not converged
     c_bands:  2 eigenvalues not converged
     c_bands:  3 eigenvalues not converged
     c_bands:  3 eigenvalues not converged
     c_bands:  4 eigenvalues not converged
     c_bands:  1 eigenvalues not converged
     c_bands:  1 eigenvalues not converged
     c_bands:  4 eigenvalues not converged
     c_bands:  2 eigenvalues not converged
     ethr =  3.94E-08,  avg # of iterations = 17.7

     total cpu time spent up to now is      344.3 secs

     total energy              =    -517.49279478 Ry
     estimated scf accuracy    <       0.00262422 Ry

     total magnetization       =     0.88 Bohr mag/cell
     absolute magnetization    =     0.94 Bohr mag/cell

     iteration # 25     ecut=   120.00 Ry     beta= 0.50
     Davidson diagonalization with overlap

---- Real-time Memory Report at c_bands before calling an iterative solver
           130 MiB given to the printing process from OS
             0 MiB allocation reported by mallinfo(arena+hblkhd)
         30890 MiB available memory on the node where the printing process lives
------------------
     c_bands:  2 eigenvalues not converged
     c_bands:  1 eigenvalues not converged
     c_bands:  2 eigenvalues not converged
     c_bands:  3 eigenvalues not converged
     c_bands:  1 eigenvalues not converged
     c_bands:  3 eigenvalues not converged
     c_bands:  2 eigenvalues not converged
     ethr =  3.94E-08,  avg # of iterations =  7.5

     total cpu time spent up to now is      352.5 secs

     total energy              =    -517.49276671 Ry
     estimated scf accuracy    <       0.00229915 Ry

     total magnetization       =     0.85 Bohr mag/cell
     absolute magnetization    =     0.93 Bohr mag/cell

     iteration # 26     ecut=   120.00 Ry     beta= 0.50
     Davidson diagonalization with overlap

---- Real-time Memory Report at c_bands before calling an iterative solver
           130 MiB given to the printing process from OS
             0 MiB allocation reported by mallinfo(arena+hblkhd)
         30888 MiB available memory on the node where the printing process lives
------------------
     c_bands:  2 eigenvalues not converged
     c_bands:  2 eigenvalues not converged
     c_bands:  1 eigenvalues not converged
     c_bands:  1 eigenvalues not converged
     c_bands:  1 eigenvalues not converged
     c_bands:  1 eigenvalues not converged
     c_bands:  1 eigenvalues not converged
     c_bands:  2 eigenvalues not converged
     c_bands:  2 eigenvalues not converged
     c_bands:  3 eigenvalues not converged
     c_bands:  4 eigenvalues not converged
     c_bands:  1 eigenvalues not converged
     c_bands:  2 eigenvalues not converged
     c_bands:  1 eigenvalues not converged
     c_bands:  3 eigenvalues not converged
     ethr =  3.94E-08,  avg # of iterations = 13.7

     total cpu time spent up to now is      366.5 secs

     total energy              =    -517.49252780 Ry
     estimated scf accuracy    <       0.00467669 Ry

     total magnetization       =     0.97 Bohr mag/cell
     absolute magnetization    =     1.00 Bohr mag/cell

     iteration # 27     ecut=   120.00 Ry     beta= 0.50
     Davidson diagonalization with overlap

---- Real-time Memory Report at c_bands before calling an iterative solver
           130 MiB given to the printing process from OS
             0 MiB allocation reported by mallinfo(arena+hblkhd)
         30886 MiB available memory on the node where the printing process lives
------------------
     c_bands:  3 eigenvalues not converged
     c_bands:  2 eigenvalues not converged
     c_bands:  3 eigenvalues not converged
     c_bands:  1 eigenvalues not converged
     c_bands:  3 eigenvalues not converged
     c_bands:  3 eigenvalues not converged
     c_bands:  4 eigenvalues not converged
     c_bands:  5 eigenvalues not converged
     c_bands:  3 eigenvalues not converged
     c_bands:  5 eigenvalues not converged
     c_bands:  4 eigenvalues not converged
     c_bands:  1 eigenvalues not converged
     c_bands:  3 eigenvalues not converged
     c_bands:  1 eigenvalues not converged
     c_bands:  1 eigenvalues not converged
     c_bands:  2 eigenvalues not converged
     c_bands:  4 eigenvalues not converged
     c_bands:  2 eigenvalues not converged
     c_bands:  5 eigenvalues not converged
     c_bands:  4 eigenvalues not converged
     c_bands:  2 eigenvalues not converged
     c_bands:  4 eigenvalues not converged
     c_bands:  3 eigenvalues not converged
     c_bands:  5 eigenvalues not converged
     c_bands:  4 eigenvalues not converged
     c_bands:  4 eigenvalues not converged
     c_bands:  3 eigenvalues not converged
     c_bands:  4 eigenvalues not converged
     c_bands:  4 eigenvalues not converged
     c_bands:  1 eigenvalues not converged
     c_bands:  2 eigenvalues not converged
     c_bands:  1 eigenvalues not converged
     ethr =  3.94E-08,  avg # of iterations = 19.6

     total cpu time spent up to now is      387.6 secs

     total energy              =    -517.49271490 Ry
     estimated scf accuracy    <       0.00005182 Ry

     total magnetization       =     0.93 Bohr mag/cell
     absolute magnetization    =     0.97 Bohr mag/cell

     iteration # 28     ecut=   120.00 Ry     beta= 0.50
     Davidson diagonalization with overlap

---- Real-time Memory Report at c_bands before calling an iterative solver
           130 MiB given to the printing process from OS
             0 MiB allocation reported by mallinfo(arena+hblkhd)
         30887 MiB available memory on the node where the printing process lives
------------------
     c_bands:  3 eigenvalues not converged
     c_bands:  1 eigenvalues not converged
     c_bands:  2 eigenvalues not converged
     c_bands:  1 eigenvalues not converged
     c_bands:  2 eigenvalues not converged
     c_bands:  2 eigenvalues not converged
     ethr =  3.94E-08,  avg # of iterations = 10.6

     total cpu time spent up to now is      396.8 secs

     total energy              =    -517.49271420 Ry
     estimated scf accuracy    <       0.00011210 Ry

     total magnetization       =     0.91 Bohr mag/cell
     absolute magnetization    =     0.95 Bohr mag/cell

     iteration # 29     ecut=   120.00 Ry     beta= 0.50
     Davidson diagonalization with overlap

---- Real-time Memory Report at c_bands before calling an iterative solver
           130 MiB given to the printing process from OS
             0 MiB allocation reported by mallinfo(arena+hblkhd)
         30889 MiB available memory on the node where the printing process lives
------------------
     c_bands:  3 eigenvalues not converged
     c_bands:  3 eigenvalues not converged
     c_bands:  3 eigenvalues not converged
     c_bands:  3 eigenvalues not converged
     c_bands:  2 eigenvalues not converged
     c_bands:  2 eigenvalues not converged
     c_bands:  1 eigenvalues not converged
     c_bands:  2 eigenvalues not converged
     c_bands:  3 eigenvalues not converged
     c_bands:  2 eigenvalues not converged
     c_bands:  1 eigenvalues not converged
     c_bands:  3 eigenvalues not converged
     c_bands:  1 eigenvalues not converged
     c_bands:  1 eigenvalues not converged
     c_bands:  1 eigenvalues not converged
     ethr =  3.94E-08,  avg # of iterations = 13.7

     total cpu time spent up to now is      411.2 secs

     total energy              =    -517.49264643 Ry
     estimated scf accuracy    <       0.00026228 Ry

     total magnetization       =     0.84 Bohr mag/cell
     absolute magnetization    =     0.94 Bohr mag/cell

     iteration # 30     ecut=   120.00 Ry     beta= 0.50
     Davidson diagonalization with overlap

---- Real-time Memory Report at c_bands before calling an iterative solver
           131 MiB given to the printing process from OS
             0 MiB allocation reported by mallinfo(arena+hblkhd)
         30883 MiB available memory on the node where the printing process lives
------------------
     c_bands:  1 eigenvalues not converged
     c_bands:  1 eigenvalues not converged
     c_bands:  1 eigenvalues not converged
     c_bands:  3 eigenvalues not converged
     c_bands:  1 eigenvalues not converged
     c_bands:  2 eigenvalues not converged
     c_bands:  1 eigenvalues not converged
     c_bands:  1 eigenvalues not converged
     c_bands:  2 eigenvalues not converged
     c_bands:  4 eigenvalues not converged
     c_bands:  2 eigenvalues not converged
     c_bands:  5 eigenvalues not converged
     c_bands:  5 eigenvalues not converged
     c_bands:  2 eigenvalues not converged
     c_bands:  2 eigenvalues not converged
     c_bands:  3 eigenvalues not converged
     c_bands:  4 eigenvalues not converged
     c_bands:  5 eigenvalues not converged
     c_bands:  4 eigenvalues not converged
     c_bands:  3 eigenvalues not converged
     c_bands:  4 eigenvalues not converged
     c_bands:  4 eigenvalues not converged
     ethr =  3.94E-08,  avg # of iterations = 18.2

     total cpu time spent up to now is      430.4 secs

     total energy              =    -517.49280915 Ry
     estimated scf accuracy    <       0.00137469 Ry

     total magnetization       =     0.64 Bohr mag/cell
     absolute magnetization    =     0.90 Bohr mag/cell

     iteration # 31     ecut=   120.00 Ry     beta= 0.50
     Davidson diagonalization with overlap

---- Real-time Memory Report at c_bands before calling an iterative solver
           131 MiB given to the printing process from OS
             0 MiB allocation reported by mallinfo(arena+hblkhd)
         30882 MiB available memory on the node where the printing process lives
------------------
     c_bands:  1 eigenvalues not converged
     c_bands:  2 eigenvalues not converged
     c_bands:  2 eigenvalues not converged
     c_bands:  3 eigenvalues not converged
     c_bands:  1 eigenvalues not converged
     ethr =  3.94E-08,  avg # of iterations = 10.4

     total cpu time spent up to now is      440.8 secs

     total energy              =    -517.49285006 Ry
     estimated scf accuracy    <       0.00110740 Ry

     total magnetization       =     0.74 Bohr mag/cell
     absolute magnetization    =     0.93 Bohr mag/cell

     iteration # 32     ecut=   120.00 Ry     beta= 0.50
     Davidson diagonalization with overlap

---- Real-time Memory Report at c_bands before calling an iterative solver
           131 MiB given to the printing process from OS
             0 MiB allocation reported by mallinfo(arena+hblkhd)
         30884 MiB available memory on the node where the printing process lives
------------------
     c_bands:  1 eigenvalues not converged
     c_bands:  2 eigenvalues not converged
     c_bands:  1 eigenvalues not converged
     c_bands:  1 eigenvalues not converged
     ethr =  3.94E-08,  avg # of iterations =  3.4

     total cpu time spent up to now is      447.7 secs

     total energy              =    -517.49280030 Ry
     estimated scf accuracy    <       0.00104339 Ry

     total magnetization       =     0.72 Bohr mag/cell
     absolute magnetization    =     0.93 Bohr mag/cell

     iteration # 33     ecut=   120.00 Ry     beta= 0.50
     Davidson diagonalization with overlap

---- Real-time Memory Report at c_bands before calling an iterative solver
           131 MiB given to the printing process from OS
             0 MiB allocation reported by mallinfo(arena+hblkhd)
         30886 MiB available memory on the node where the printing process lives
------------------
     c_bands:  1 eigenvalues not converged
     c_bands:  2 eigenvalues not converged
     c_bands:  1 eigenvalues not converged
     c_bands:  1 eigenvalues not converged
     c_bands:  3 eigenvalues not converged
     c_bands:  1 eigenvalues not converged
     c_bands:  3 eigenvalues not converged
     c_bands:  1 eigenvalues not converged
     c_bands:  1 eigenvalues not converged
     c_bands:  5 eigenvalues not converged
     c_bands:  3 eigenvalues not converged
     c_bands:  1 eigenvalues not converged
     c_bands:  2 eigenvalues not converged
     c_bands:  1 eigenvalues not converged
     c_bands:  1 eigenvalues not converged
     ethr =  3.94E-08,  avg # of iterations = 13.9

     total cpu time spent up to now is      462.0 secs

     total energy              =    -517.49261720 Ry
     estimated scf accuracy    <       0.00287305 Ry

     total magnetization       =     0.81 Bohr mag/cell
     absolute magnetization    =     0.92 Bohr mag/cell

     iteration # 34     ecut=   120.00 Ry     beta= 0.50
     Davidson diagonalization with overlap

---- Real-time Memory Report at c_bands before calling an iterative solver
           131 MiB given to the printing process from OS
             0 MiB allocation reported by mallinfo(arena+hblkhd)
         30885 MiB available memory on the node where the printing process lives
------------------
     c_bands:  2 eigenvalues not converged
     c_bands:  1 eigenvalues not converged
     c_bands:  1 eigenvalues not converged
     c_bands:  1 eigenvalues not converged
     c_bands:  2 eigenvalues not converged
     c_bands:  1 eigenvalues not converged
     c_bands:  3 eigenvalues not converged
     c_bands:  2 eigenvalues not converged
     c_bands:  4 eigenvalues not converged
     c_bands:  1 eigenvalues not converged
     c_bands:  3 eigenvalues not converged
     c_bands:  4 eigenvalues not converged
     c_bands:  1 eigenvalues not converged
     c_bands:  4 eigenvalues not converged
     c_bands:  4 eigenvalues not converged
     c_bands:  1 eigenvalues not converged
     ethr =  3.94E-08,  avg # of iterations = 15.8

     total cpu time spent up to now is      478.7 secs

     total energy              =    -517.49272471 Ry
     estimated scf accuracy    <       0.00031222 Ry

     total magnetization       =     0.93 Bohr mag/cell
     absolute magnetization    =     0.97 Bohr mag/cell

     iteration # 35     ecut=   120.00 Ry     beta= 0.50
     Davidson diagonalization with overlap

---- Real-time Memory Report at c_bands before calling an iterative solver
           131 MiB given to the printing process from OS
             0 MiB allocation reported by mallinfo(arena+hblkhd)
         30884 MiB available memory on the node where the printing process lives
------------------
     c_bands:  2 eigenvalues not converged
     c_bands:  2 eigenvalues not converged
     ethr =  3.94E-08,  avg # of iterations =  3.5

     total cpu time spent up to now is      485.7 secs

     total energy              =    -517.49258472 Ry
     estimated scf accuracy    <       0.00029042 Ry

     total magnetization       =     0.95 Bohr mag/cell
     absolute magnetization    =     0.98 Bohr mag/cell

     iteration # 36     ecut=   120.00 Ry     beta= 0.50
     Davidson diagonalization with overlap

---- Real-time Memory Report at c_bands before calling an iterative solver
           131 MiB given to the printing process from OS
             0 MiB allocation reported by mallinfo(arena+hblkhd)
         30886 MiB available memory on the node where the printing process lives
------------------
     c_bands:  1 eigenvalues not converged
     c_bands:  3 eigenvalues not converged
     c_bands:  4 eigenvalues not converged
     c_bands:  5 eigenvalues not converged
     c_bands:  3 eigenvalues not converged
     c_bands:  4 eigenvalues not converged
     c_bands:  2 eigenvalues not converged
     c_bands:  4 eigenvalues not converged
     c_bands:  5 eigenvalues not converged
     c_bands:  3 eigenvalues not converged
     c_bands:  4 eigenvalues not converged
     c_bands:  4 eigenvalues not converged
     c_bands:  5 eigenvalues not converged
     c_bands:  5 eigenvalues not converged
     c_bands:  1 eigenvalues not converged
     c_bands:  1 eigenvalues not converged
     c_bands:  1 eigenvalues not converged
     c_bands:  3 eigenvalues not converged
     c_bands:  3 eigenvalues not converged
     c_bands:  1 eigenvalues not converged
     c_bands:  1 eigenvalues not converged
     c_bands:  1 eigenvalues not converged
     c_bands:  1 eigenvalues not converged
     c_bands:  2 eigenvalues not converged
     c_bands:  3 eigenvalues not converged
     ethr =  3.94E-08,  avg # of iterations = 17.7

     total cpu time spent up to now is      504.1 secs

     total energy              =    -517.49285151 Ry
     estimated scf accuracy    <       0.00003357 Ry

     total magnetization       =     0.74 Bohr mag/cell
     absolute magnetization    =     0.97 Bohr mag/cell

     iteration # 37     ecut=   120.00 Ry     beta= 0.50
     Davidson diagonalization with overlap

---- Real-time Memory Report at c_bands before calling an iterative solver
           131 MiB given to the printing process from OS
             0 MiB allocation reported by mallinfo(arena+hblkhd)
         30890 MiB available memory on the node where the printing process lives
------------------
     c_bands:  1 eigenvalues not converged
     c_bands:  1 eigenvalues not converged
     c_bands:  1 eigenvalues not converged
     c_bands:  1 eigenvalues not converged
     c_bands:  1 eigenvalues not converged
     c_bands:  1 eigenvalues not converged
     ethr =  3.94E-08,  avg # of iterations = 10.9

     total cpu time spent up to now is      514.0 secs

     total energy              =    -517.49281262 Ry
     estimated scf accuracy    <       0.00008559 Ry

     total magnetization       =     0.74 Bohr mag/cell
     absolute magnetization    =     0.97 Bohr mag/cell

     iteration # 38     ecut=   120.00 Ry     beta= 0.50
     Davidson diagonalization with overlap

---- Real-time Memory Report at c_bands before calling an iterative solver
           131 MiB given to the printing process from OS
             0 MiB allocation reported by mallinfo(arena+hblkhd)
         30887 MiB available memory on the node where the printing process lives
------------------
     c_bands:  4 eigenvalues not converged
     c_bands:  5 eigenvalues not converged
     c_bands:  4 eigenvalues not converged
     c_bands:  4 eigenvalues not converged
     c_bands:  4 eigenvalues not converged
     c_bands:  3 eigenvalues not converged
     c_bands:  4 eigenvalues not converged
     c_bands:  3 eigenvalues not converged
     c_bands:  4 eigenvalues not converged
     c_bands:  3 eigenvalues not converged
     c_bands:  1 eigenvalues not converged
     c_bands:  5 eigenvalues not converged
     c_bands:  2 eigenvalues not converged
     c_bands:  1 eigenvalues not converged
     c_bands:  2 eigenvalues not converged
     c_bands:  2 eigenvalues not converged
[...]
    23.0939  23.3611  23.5006  23.5021  23.5045  23.5408  23.8873  24.0077

     occupation numbers 
     1.0000   1.0000   1.0000   1.0000   1.0000   1.0000   1.0000   1.0000
     1.0000   1.0000   1.0000   1.0000   1.0000   1.0000   1.0000   1.0000
     1.0000   1.0000   1.0000   1.0000   1.0000   1.0000   1.0001   1.0092
     0.6491   0.3639   0.2424   0.2412   0.2394   0.2127   0.0527   0.0290

          k = 0.0000 0.1667 0.3333 ( 13047 PWs)   bands (ev):

   -20.5071 -20.0326 -19.7931 -19.6990   2.7146   2.8377   2.9770   3.6048
     4.1210   4.6580   4.9189   5.0071   5.0503   5.3132   5.9556   6.3378
    20.0874  20.2760  20.5976  20.6348  20.9336  21.3612  21.5186  22.2670
    22.6314  23.0297  23.3709  23.3819  23.4931  23.6054  23.6870  23.6992

     occupation numbers 
     1.0000   1.0000   1.0000   1.0000   1.0000   1.0000   1.0000   1.0000
     1.0000   1.0000   1.0000   1.0000   1.0000   1.0000   1.0000   1.0000
     1.0000   1.0000   1.0000   1.0000   1.0001   1.0024   1.0061   1.0792
     1.0321   0.7188   0.3546   0.3441   0.2482   0.1700   0.1252   0.1193

          k = 0.0000 0.1667-0.5000 ( 13066 PWs)   bands (ev):

   -20.4395 -20.0727 -19.8241 -19.6999   3.0454   3.1649   3.3383   3.5443
     3.6852   3.8091   4.9201   5.0108   5.3748   5.5447   5.7792   5.8953
    20.9371  21.0223  21.1340  21.1374  21.1601  21.2494  22.5830  22.6721
    22.7531  22.8297  22.8613  22.8655  23.1408  23.3254  23.7381  23.9270

     occupation numbers 
     1.0000   1.0000   1.0000   1.0000   1.0000   1.0000   1.0000   1.0000
     1.0000   1.0000   1.0000   1.0000   1.0000   1.0000   1.0000   1.0000
     1.0001   1.0002   1.0005   1.0005   1.0006   1.0012   1.0502   1.0133
     0.9660   0.9097   0.8833   0.8797   0.5972   0.3991   0.1020   0.0436

          k = 0.0000 0.3333 0.3333 ( 13006 PWs)   bands (ev):

   -20.4399 -20.0076 -19.8345 -19.7529   2.8031   2.9550   3.1531   3.2176
     3.9389   4.3746   4.5535   5.3946   5.4195   5.5192   5.5483   6.3905
    20.1817  21.1647  21.2141  21.5253  21.6449  21.6653  21.6939  22.4364
    22.5654  22.6177  23.0046  23.3574  23.5110  23.6359  23.6474  23.7946

     occupation numbers 
     1.0000   1.0000   1.0000   1.0000   1.0000   1.0000   1.0000   1.0000
     1.0000   1.0000   1.0000   1.0000   1.0000   1.0000   1.0000   1.0000
     1.0000   1.0007   1.0009   1.0063   1.0116   1.0128   1.0146   1.0801
     1.0558   1.0377   0.7454   0.3675   0.2344   0.1521   0.1457   0.0803

          k = 0.0000 0.3333-0.5000 ( 13038 PWs)   bands (ev):

   -20.3998 -19.9940 -19.8640 -19.7787   2.8672   2.9138   3.2901   3.3291
     3.6902   3.9077   4.8922   5.0506   5.5276   5.5662   6.0350   6.0832
    20.9368  20.9467  21.7584  21.8124  21.8488  21.8696  22.0795  22.2111
    22.7081  22.7634  22.8550  22.8579  23.4286  23.6066  23.7610  23.8040

     occupation numbers 
     1.0000   1.0000   1.0000   1.0000   1.0000   1.0000   1.0000   1.0000
     1.0000   1.0000   1.0000   1.0000   1.0000   1.0000   1.0000   1.0000
     1.0001   1.0001   1.0193   1.0241   1.0278   1.0300   1.0570   1.0739
     0.9939   0.9591   0.8887   0.8863   0.3017   0.1693   0.0927   0.0771

          k = 0.0000-0.5000-0.5000 ( 13000 PWs)   bands (ev):

   -20.3775 -19.8865 -19.8865 -19.8864   2.8714   2.8714   3.0595   3.0710
     4.0756   4.4434   4.4434   4.4516   5.8838   5.8838   6.0613   6.0651
    21.1787  21.1814  21.2242  21.2242  22.5463  22.5468  22.6174  22.6174
    22.6342  22.6342  22.8191  22.8998  23.1163  23.6645  23.6645  23.7458

     occupation numbers 
     1.0000   1.0000   1.0000   1.0000   1.0000   1.0000   1.0000   1.0000
     1.0000   1.0000   1.0000   1.0000   1.0000   1.0000   1.0000   1.0000
     1.0007   1.0007   1.0010   1.0010   1.0611   1.0610   1.0378   1.0378
     1.0309   1.0309   0.9181   0.8490   0.6242   0.1366   0.1366   0.0987

          k = 0.1667 0.1667 0.1667 ( 13055 PWs)   bands (ev):

   -20.5698 -20.0016 -19.7273 -19.7273   2.5031   2.5031   2.5968   4.2157
     4.4592   4.4592   5.0358   5.0358   5.1213   5.1737   6.4638   6.4638
    19.5967  19.5967  19.6200  19.9015  21.0410  21.0410  21.0607  21.7848
    23.0722  23.4082  23.4082  23.5063  23.5063  23.5155  23.8328  23.8601

     occupation numbers 
     1.0000   1.0000   1.0000   1.0000   1.0000   1.0000   1.0000   1.0000
     1.0000   1.0000   1.0000   1.0000   1.0000   1.0000   1.0000   1.0000
     1.0000   1.0000   1.0000   1.0000   1.0003   1.0003   1.0003   1.0216
     0.6728   0.3199   0.3199   0.2381   0.2381   0.2311   0.0678   0.0599

          k = 0.1667 0.1667 0.3333 ( 13044 PWs)   bands (ev):

   -20.4820 -20.0230 -19.8015 -19.7254   2.6221   2.6819   2.8772   3.8861
     4.1202   4.2647   4.9836   5.1123   5.1780   5.3680   6.1515   6.2656
    20.1970  20.2720  20.2871  20.5032  21.3340  22.0928  22.2893  22.3030
    22.6438  22.9529  23.1277  23.1895  23.4429  23.6410  23.6551  23.6866

     occupation numbers 
     1.0000   1.0000   1.0000   1.0000   1.0000   1.0000   1.0000   1.0000
     1.0000   1.0000   1.0000   1.0000   1.0000   1.0000   1.0000   1.0000
     1.0000   1.0000   1.0000   1.0000   1.0021   1.0588   1.0808   1.0817
     1.0267   0.7982   0.6117   0.5433   0.2894   0.1493   0.1416   0.1254

          k = 0.1667 0.1667-0.5000 ( 13038 PWs)   bands (ev):

   -20.4249 -20.0474 -19.8380 -19.7244   2.6893   2.7914   3.3984   3.4202
     3.8132   3.9814   5.1067   5.1912   5.6531   5.6583   5.7221   5.8207
    20.6791  20.7618  21.1210  21.1464  21.8521  21.8942  22.1593  22.2155
    22.5761  22.6347  23.0833  23.0836  23.2163  23.5511  23.8265  23.9054

     occupation numbers 
     1.0000   1.0000   1.0000   1.0000   1.0000   1.0000   1.0000   1.0000
     1.0000   1.0000   1.0000   1.0000   1.0000   1.0000   1.0000   1.0000
     1.0000   1.0000   1.0005   1.0006   1.0281   1.0328   1.0677   1.0744
     1.0525   1.0307   0.6606   0.6603   0.5139   0.2054   0.0697   0.0484

          k = 0.1667 0.3333 0.3333 ( 13047 PWs)   bands (ev):

   -20.4257 -19.9983 -19.8331 -19.7749   2.5087   2.5558   2.6974   3.4564
     4.0999   4.6920   4.8151   5.4273   5.4713   5.5993   5.8721   6.3266
    20.3428  20.4680  20.7550  20.7859  22.0866  22.0944  22.3157  22.6625
    22.6735  22.8057  23.0040  23.1827  23.4035  23.5568  23.6542  23.8141

     occupation numbers 
     1.0000   1.0000   1.0000   1.0000   1.0000   1.0000   1.0000   1.0000
     1.0000   1.0000   1.0000   1.0000   1.0000   1.0000   1.0000   1.0000
     1.0000   1.0000   1.0000   1.0000   1.0580   1.0590   1.0823   1.0180
     1.0126   0.9286   0.7460   0.5507   0.3241   0.2015   0.1420   0.0737

          k = 0.1667 0.3333-0.5000 ( 13040 PWs)   bands (ev):

   -20.3933 -19.9785 -19.8683 -19.7920   2.4437   2.5081   2.8851   2.9110
     4.3078   4.4887   5.3036   5.4011   5.5957   5.6264   5.9957   6.0501
    20.8493  20.9151  21.0709  21.0855  21.8801  21.8966  21.9213  21.9442
    22.7856  22.9732  23.1943  23.2022  23.3911  23.7561  23.7768  23.8107

     occupation numbers 
     1.0000   1.0000   1.0000   1.0000   1.0000   1.0000   1.0000   1.0000
     1.0000   1.0000   1.0000   1.0000   1.0000   1.0000   1.0000   1.0000
     1.0001   1.0001   1.0003   1.0004   1.0312   1.0330   1.0360   1.0388
     0.9435   0.7778   0.5380   0.5294   0.3355   0.0946   0.0867   0.0748

          k = 0.1667-0.5000-0.5000 ( 13056 PWs)   bands (ev):

   -20.3760 -19.8849 -19.8849 -19.8848   2.4792   2.4792   2.5453   2.6411
     4.7055   4.9472   4.9472   4.9967   5.8902   5.8902   6.0641   6.0680
    21.0479  21.0662  21.1257  21.1257  21.7023  21.7023  21.7082  21.7669
    23.1672  23.1891  23.1891  23.4040  23.4582  23.6587  23.6587  23.7636

     occupation numbers 
     1.0000   1.0000   1.0000   1.0000   1.0000   1.0000   1.0000   1.0000
     1.0000   1.0000   1.0000   1.0000   1.0000   1.0000   1.0000   1.0000
     1.0003   1.0003   1.0005   1.0005   1.0151   1.0151   1.0155   1.0201
     0.5678   0.5437   0.5437   0.3238   0.2764   0.1396   0.1396   0.0917

          k = 0.3333 0.3333 0.3333 ( 13064 PWs)   bands (ev):

   -20.3957 -19.9695 -19.8304 -19.8304   2.1908   2.1908   2.3144   2.7869
     4.9273   5.1705   5.1705   5.5994   5.5994   5.7540   6.1587   6.1587
    19.9237  20.6253  20.6253  20.6406  21.8697  21.8697  21.8745  22.3449
    23.0841  23.0841  23.3185  23.4017  23.6674  23.6674  23.7377  23.7377

     occupation numbers 
     1.0000   1.0000   1.0000   1.0000   1.0000   1.0000   1.0000   1.0000
     1.0000   1.0000   1.0000   1.0000   1.0000   1.0000   1.0000   1.0000
     1.0000   1.0000   1.0000   1.0000   1.0300   1.0300   1.0305   1.0832
     0.6598   0.6598   0.4060   0.3258   0.1351   0.1351   0.1021   0.1021

          k = 0.3333 0.3333-0.5000 ( 13052 PWs)   bands (ev):

   -20.3800 -19.9368 -19.8772 -19.8291   2.0425   2.0979   2.3044   2.3718
     5.0885   5.2876   5.6615   5.7009   5.8948   5.9060   5.9210   5.9883
    20.1579  20.2167  20.8024  20.8075  21.4847  21.5085  21.9796  21.9826
    23.1532  23.2967  23.3466  23.5264  23.5289  23.7392  23.7588  23.7930

     occupation numbers 
     1.0000   1.0000   1.0000   1.0000   1.0000   1.0000   1.0000   1.0000
     1.0000   1.0000   1.0000   1.0000   1.0000   1.0000   1.0000   1.0000
     1.0000   1.0000   1.0000   1.0000   1.0050   1.0057   1.0434   1.0438
     0.5834   0.4283   0.3780   0.2230   0.2212   0.1015   0.0935   0.0808

          k = 0.3333-0.5000-0.5000 ( 13048 PWs)   bands (ev):

   -20.3732 -19.8818 -19.8818 -19.8818   1.9840   1.9840   1.9959   2.1258
     5.4989   5.6509   5.6509   5.7550   5.9303   5.9303   6.0699   6.0738
    20.1022  20.1758  20.1855  20.1855  21.8432  21.8449  21.8449  21.8840
    23.2733  23.3130  23.3130  23.6506  23.6995  23.6995  23.7430  23.7901

     occupation numbers 
     1.0000   1.0000   1.0000   1.0000   1.0000   1.0000   1.0000   1.0000
     1.0000   1.0000   1.0000   1.0000   1.0000   1.0000   1.0000   1.0000
     1.0000   1.0000   1.0000   1.0000   1.0272   1.0274   1.0274   1.0316
     0.4528   0.4116   0.4116   0.1440   0.1192   0.1192   0.0999   0.0819

          k =-0.5000-0.5000-0.5000 ( 13096 PWs)   bands (ev):

   -20.3717 -19.8803 -19.8803 -19.8803   1.7956   1.7956   1.7956   1.9327
     5.8284   5.8284   5.8284   6.0727   6.0727   6.0727   6.0767   6.0767
    19.6564  19.7413  19.7413  19.7413  22.0395  22.0395  22.0395  22.0857
    23.3257  23.3257  23.3257  23.7142  23.7142  23.7142  23.8006  23.8006

     occupation numbers 
     1.0000   1.0000   1.0000   1.0000   1.0000   1.0000   1.0000   1.0000
     1.0000   1.0000   1.0000   1.0000   1.0000   1.0000   1.0000   1.0000
     1.0000   1.0000   1.0000   1.0000   1.0515   1.0515   1.0515   1.0578
     0.3987   0.3987   0.3987   0.1124   0.1124   0.1124   0.0782   0.0782

     the Fermi energy is    23.3239 ev

!    total energy              =    -517.49523937 Ry
     estimated scf accuracy    <          7.3E-09 Ry
     smearing contrib. (-TS)   =      -0.04217000 Ry
     internal energy E=F+TS    =    -517.45306937 Ry

     The total energy is F=E-TS. E is the sum of the following terms:
     one-electron contribution =      40.77810128 Ry
     hartree contribution      =      37.48168977 Ry
     xc contribution           =    -166.65773156 Ry
     ewald contribution        =    -429.05512886 Ry

     total magnetization       =     1.07 Bohr mag/cell
     absolute magnetization    =     3.49 Bohr mag/cell

     convergence has been achieved in  89 iterations

     Forces acting on atoms (cartesian axes, Ry/au):

     atom    1 type  1   force =     0.00000000    0.00000000    0.00000000
     atom    2 type  1   force =     0.00000000    0.00000000    0.00000000
     atom    3 type  1   force =     0.00000000    0.00000000    0.00000000
     atom    4 type  1   force =     0.00000000    0.00000000    0.00000000
     The non-local contrib.  to forces
     atom    1 type  1   force =     0.00000000    0.00000000    0.00000000
     atom    2 type  1   force =     0.00000000    0.00000000    0.00000000
     atom    3 type  1   force =     0.00000000    0.00000000    0.00000000
     atom    4 type  1   force =     0.00000000    0.00000000    0.00000000
     The ionic contribution  to forces
     atom    1 type  1   force =    -0.00000000   -0.00000000   -0.00000000
     atom    2 type  1   force =     0.00000000    0.00000000   -0.00000000
     atom    3 type  1   force =     0.00000000   -0.00000000    0.00000000
     atom    4 type  1   force =    -0.00000000    0.00000000    0.00000000
     The local contribution  to forces
     atom    1 type  1   force =     0.00000000    0.00000000   -0.00000000
     atom    2 type  1   force =     0.00000000    0.00000000   -0.00000000
     atom    3 type  1   force =     0.00000000    0.00000000    0.00000000
     atom    4 type  1   force =     0.00000000    0.00000000    0.00000000
     The core correction contribution to forces
     atom    1 type  1   force =     0.00000000   -0.00000000    0.00000000
     atom    2 type  1   force =    -0.00000000   -0.00000000    0.00000000
     atom    3 type  1   force =    -0.00000000   -0.00000000   -0.00000000
     atom    4 type  1   force =     0.00000000   -0.00000000   -0.00000000
     The Hubbard contrib.    to forces
     atom    1 type  1   force =     0.00000000    0.00000000    0.00000000
     atom    2 type  1   force =     0.00000000    0.00000000    0.00000000
     atom    3 type  1   force =     0.00000000    0.00000000    0.00000000
     atom    4 type  1   force =     0.00000000    0.00000000    0.00000000
     The SCF correction term to forces
     atom    1 type  1   force =     0.00000000    0.00000000    0.00000000
     atom    2 type  1   force =     0.00000000   -0.00000000    0.00000000
     atom    3 type  1   force =    -0.00000000    0.00000000   -0.00000000
     atom    4 type  1   force =    -0.00000000    0.00000000   -0.00000000

     Total force =     0.000000     Total SCF correction =     0.000000


     Computing stress (Cartesian axis) and pressure

          total   stress  (Ry/bohr**3)                   (kbar)     P=        1.45
   0.00000988   0.00000000   0.00000000            1.45        0.00        0.00
   0.00000000   0.00000988   0.00000000            0.00        1.45        0.00
   0.00000000   0.00000000   0.00000988            0.00        0.00        1.45

     kinetic stress (kbar)  31334.65      0.00      0.00
                                0.00  31334.64      0.00
                                0.00      0.00  31334.64

     local   stress (kbar)   8435.78      0.00      0.00
                                0.00   8435.78      0.00
                                0.00      0.00   8435.78

     nonloc. stress (kbar)   -584.72      0.00      0.00
                                0.00   -584.72      0.00
                                0.00      0.00   -584.72

     hartree stress (kbar)   3125.63     -0.00      0.00
                               -0.00   3125.63      0.00
                                0.00      0.00   3125.63

     exc-cor stress (kbar)  21046.39      0.00      0.00
                                0.00  21046.39      0.00
                                0.00      0.00  21046.39

     corecor stress (kbar) -27576.98     -0.00      0.00
                               -0.00 -27576.98      0.00
                                0.00      0.00 -27576.98

     ewald   stress (kbar) -35779.30      0.00     -0.00
                                0.00 -35779.30     -0.00
                               -0.00     -0.00 -35779.30

     hubbard stress (kbar)      0.00      0.00      0.00
                                0.00      0.00      0.00
                                0.00      0.00      0.00

     DFT-D   stress (kbar)      0.00      0.00      0.00
                                0.00      0.00      0.00
                                0.00      0.00      0.00

     XDM     stress (kbar)      0.00      0.00      0.00
                                0.00      0.00      0.00
                                0.00      0.00      0.00

     dft-nl  stress (kbar)      0.00      0.00      0.00
                                0.00      0.00      0.00
                                0.00      0.00      0.00

     TS-vdW  stress (kbar)      0.00      0.00      0.00
                                0.00      0.00      0.00
                                0.00      0.00      0.00


                                0.00      0.00      0.00
                                0.00      0.00      0.00


                                0.00      0.00      0.00


     Writing output data file ./Uranium.save/

     init_run     :      4.19s CPU      4.35s WALL (       1 calls)
     electrons    :   1290.10s CPU   1319.49s WALL (       1 calls)
     forces       :      2.54s CPU      2.62s WALL (       1 calls)
     stress       :      5.43s CPU      5.69s WALL (       1 calls)

     Called by init_run:
     wfcinit      :      2.38s CPU      2.42s WALL (       1 calls)
     wfcinit:wfcr :      2.24s CPU      2.28s WALL (      40 calls)
     potinit      :      0.39s CPU      0.39s WALL (       1 calls)
     hinit0       :      0.67s CPU      0.69s WALL (       1 calls)

     Called by electrons:
     c_bands      :   1130.40s CPU   1142.99s WALL (      89 calls)
     sum_band     :    112.09s CPU    121.04s WALL (      89 calls)
     v_of_rho     :     10.40s CPU     10.47s WALL (      90 calls)
     v_h          :      0.21s CPU      0.21s WALL (      90 calls)
     v_xc         :     10.42s CPU     10.50s WALL (      92 calls)
     newd         :     35.98s CPU     43.70s WALL (      90 calls)
     mix_rho      :      1.10s CPU      1.14s WALL (      89 calls)

     Called by c_bands:
     init_us_2    :      5.50s CPU      5.68s WALL (    7240 calls)
     cegterg      :   1102.49s CPU   1114.74s WALL (    3653 calls)

     Called by sum_band:
     sum_band:wei :      0.39s CPU      0.40s WALL (      89 calls)
     sum_band:loo :     61.12s CPU     62.07s WALL (      89 calls)
     sum_band:buf :      0.25s CPU      0.26s WALL (    3560 calls)
     sum_band:ini :      2.48s CPU      2.52s WALL (    3560 calls)
     sum_band:cal :     20.39s CPU     20.52s WALL (    3560 calls)
     sum_band:bec :      2.17s CPU      2.19s WALL (    3560 calls)
     addusdens    :     49.28s CPU     57.02s WALL (      89 calls)
     addusd:skk   :      0.03s CPU      0.03s WALL (      89 calls)
     addusd:dgemm :     13.46s CPU     19.37s WALL (     178 calls)
     addusd:qvan2 :     33.16s CPU     33.37s WALL (     178 calls)

     Called by *egterg:
     cdiaghg      :    188.96s CPU    189.92s WALL (   53437 calls)
     cegterg:over :     77.51s CPU     78.35s WALL (   49784 calls)
     cegterg:upda :     31.63s CPU     31.84s WALL (   49784 calls)
     cegterg:last :    111.40s CPU    111.84s WALL (   16119 calls)
     h_psi        :    561.38s CPU    570.39s WALL (   53477 calls)
     s_psi        :    105.59s CPU    106.21s WALL (   53477 calls)
     g_psi        :      1.90s CPU      1.93s WALL (   49784 calls)

     Called by h_psi:
     h_psi:calbec :    101.96s CPU    103.06s WALL (   53477 calls)
     vloc_psi     :    352.43s CPU    359.80s WALL (   53477 calls)
     add_vuspsi   :    105.46s CPU    106.01s WALL (   53477 calls)

     General routines
     calbec       :    123.34s CPU    124.62s WALL (   57237 calls)
     fft          :      4.36s CPU      4.43s WALL (    2288 calls)
     ffts         :      0.23s CPU      0.23s WALL (     358 calls)
     fftw         :    367.98s CPU    375.70s WALL ( 1216722 calls)
     interpolate  :      0.45s CPU      0.46s WALL (     180 calls)

     Parallel routines

     PWSCF        :  21m43.68s CPU  22m15.07s WALL


   This run was terminated on:  20: 3:32   8Dec2021            

=------------------------------------------------------------------------------=
   JOB DONE.
=------------------------------------------------------------------------------=
