
     Program PWSCF v.6.8 starts on  5Dec2021 at 14:10:21 

     This program is part of the open-source Quantum ESPRESSO suite
     for quantum simulation of materials; please cite
         "P. Giannozzi et al., J. Phys.:Condens. Matter 21 395502 (2009);
         "P. Giannozzi et al., J. Phys.:Condens. Matter 29 465901 (2017);
         "P. Giannozzi et al., J. Chem. Phys. 152 154105 (2020);
          URL http://www.quantum-espresso.org", 
     in publications or presentations arising from this work. More details at
     http://www.quantum-espresso.org/quote

     Parallel version (MPI), running on    32 processors

     MPI processes distributed on     1 nodes
     R & G space division:  proc/nbgrp/npool/nimage =      32
     41856 MiB available memory on the printing compute node when the environment starts

     Reading input from fcc_u.in

     Current dimensions of program PWSCF are:
     Max number of different atomic species (ntypx) = 10
     Max number of k-points (npk) =  40000
     Max angular momentum in pseudopotentials (lmaxx) =  4
     file U.pbe-spfn-rrkjus_psl.1.0.0.UPF: wavefunction(s)  5F renormalized
     Found symmetry operation: I + ( -0.5000  0.5000  0.0000)
     This is a supercell, fractional translations are disabled
     Message from routine setup:
     using ibrav=0 with symmetry is DISCOURAGED, use correct ibrav instead

     Subspace diagonalization in iterative solution of the eigenvalue problem:
     a serial algorithm will be used


     Parallelization info
     --------------------
     sticks:   dense  smooth     PW     G-vecs:    dense   smooth      PW
     Min         130      65     18                 6294     2226     336
     Max         131      67     19                 6298     2231     341
     Sum        4165    2085    593               201485    71327   10827

     Using Slab Decomposition



     bravais-lattice index     =            0
     lattice parameter (alat)  =       8.3778  a.u.
     unit-cell volume          =     588.0141 (a.u.)^3
     number of atoms/cell      =            4
     number of atomic types    =            1
     number of electrons       =        56.00
     number of Kohn-Sham states=           32
     kinetic-energy cutoff     =      93.0000  Ry
     charge density cutoff     =     744.0000  Ry
     scf convergence threshold =      1.0E-08
     mixing beta               =       0.5000
     number of iterations used =            8  plain     mixing
     energy convergence thresh.=      7.7E-06
     force convergence thresh. =      4.0E-05
     press convergence thresh. =      5.0E-01
     Exchange-correlation= PBE
                           (   1   4   3   4   0   0   0)
     nstep                     =         2000


     celldm(1)=   8.377785  celldm(2)=   0.000000  celldm(3)=   0.000000
     celldm(4)=   0.000000  celldm(5)=   0.000000  celldm(6)=   0.000000

     crystal axes: (cart. coord. in units of alat)
               a(1) = (   1.000000   0.000000   0.000000 )  
               a(2) = (   0.000000   1.000000   0.000000 )  
               a(3) = (   0.000000   0.000000   1.000000 )  

     reciprocal axes: (cart. coord. in units 2 pi/alat)
               b(1) = (  1.000000  0.000000  0.000000 )  
               b(2) = (  0.000000  1.000000  0.000000 )  
               b(3) = (  0.000000  0.000000  1.000000 )  


     PseudoPot. # 1 for U  read from file:
     /home/myhawary/QE/runs/pseudo/U.pbe-spfn-rrkjus_psl.1.0.0.UPF
     MD5 check sum: b50a7459bb2a1ad67e79ea3a31ec714c
     Pseudo is Ultrasoft + core correction, Zval = 14.0
     Generated using &quot;atomic&quot; code by A. Dal Corso  v.6.2.2
     Using radial grid of 1291 points,  8 beta functions with: 
                l(1) =   0
                l(2) =   0
                l(3) =   1
                l(4) =   1
                l(5) =   2
                l(6) =   2
                l(7) =   3
                l(8) =   3
     Q(r) pseudized with 0 coefficients 


     atomic species   valence    mass     pseudopotential
        U             14.00   238.00000     U ( 1.00)

     Starting magnetic structure 
     atomic species   magnetization
        U            0.100

     48 Sym. Ops., with inversion, found


                                    s                        frac. trans.

      isym =  1     identity                                     

 cryst.   s( 1) = (     1          0          0      )
                  (     0          1          0      )
                  (     0          0          1      )

 cart.    s( 1) = (  1.0000000  0.0000000  0.0000000 )
                  (  0.0000000  1.0000000  0.0000000 )
                  (  0.0000000  0.0000000  1.0000000 )


      isym =  2     180 deg rotation - cart. axis [0,0,1]        

 cryst.   s( 2) = (    -1          0          0      )
                  (     0         -1          0      )
                  (     0          0          1      )

 cart.    s( 2) = ( -1.0000000  0.0000000  0.0000000 )
                  (  0.0000000 -1.0000000  0.0000000 )
                  (  0.0000000  0.0000000  1.0000000 )


      isym =  3     180 deg rotation - cart. axis [0,1,0]        

 cryst.   s( 3) = (    -1          0          0      )
                  (     0          1          0      )
                  (     0          0         -1      )

 cart.    s( 3) = ( -1.0000000  0.0000000  0.0000000 )
                  (  0.0000000  1.0000000  0.0000000 )
                  (  0.0000000  0.0000000 -1.0000000 )


      isym =  4     180 deg rotation - cart. axis [1,0,0]        

 cryst.   s( 4) = (     1          0          0      )
                  (     0         -1          0      )
                  (     0          0         -1      )

 cart.    s( 4) = (  1.0000000  0.0000000  0.0000000 )
                  (  0.0000000 -1.0000000  0.0000000 )
                  (  0.0000000  0.0000000 -1.0000000 )


      isym =  5     180 deg rotation - cart. axis [1,1,0]        

 cryst.   s( 5) = (     0          1          0      )
                  (     1          0          0      )
                  (     0          0         -1      )

 cart.    s( 5) = (  0.0000000  0.9999999  0.0000000 )
                  (  1.0000001  0.0000000  0.0000000 )
                  (  0.0000000  0.0000000 -1.0000000 )


      isym =  6     180 deg rotation - cart. axis [1,-1,0]       

 cryst.   s( 6) = (     0         -1          0      )
                  (    -1          0          0      )
                  (     0          0         -1      )

 cart.    s( 6) = (  0.0000000 -0.9999999  0.0000000 )
                  ( -1.0000001  0.0000000  0.0000000 )
                  (  0.0000000  0.0000000 -1.0000000 )


      isym =  7      90 deg rotation - cart. axis [0,0,-1]       

 cryst.   s( 7) = (     0         -1          0      )
                  (     1          0          0      )
                  (     0          0          1      )

 cart.    s( 7) = (  0.0000000  0.9999999  0.0000000 )
                  ( -1.0000001  0.0000000  0.0000000 )
                  (  0.0000000  0.0000000  1.0000000 )


      isym =  8      90 deg rotation - cart. axis [0,0,1]        

 cryst.   s( 8) = (     0          1          0      )
                  (    -1          0          0      )
                  (     0          0          1      )

 cart.    s( 8) = (  0.0000000 -0.9999999  0.0000000 )
                  (  1.0000001  0.0000000  0.0000000 )
                  (  0.0000000  0.0000000  1.0000000 )


      isym =  9     180 deg rotation - cart. axis [1,0,1]        

 cryst.   s( 9) = (     0          0          1      )
                  (     0         -1          0      )
                  (     1          0          0      )

 cart.    s( 9) = (  0.0000000  0.0000000  0.9999999 )
                  (  0.0000000 -1.0000000  0.0000000 )
                  (  1.0000001  0.0000000  0.0000000 )


      isym = 10     180 deg rotation - cart. axis [-1,0,1]       

 cryst.   s(10) = (     0          0         -1      )
                  (     0         -1          0      )
                  (    -1          0          0      )

 cart.    s(10) = (  0.0000000  0.0000000 -0.9999999 )
                  (  0.0000000 -1.0000000  0.0000000 )
                  ( -1.0000001  0.0000000  0.0000000 )


      isym = 11      90 deg rotation - cart. axis [0,1,0]        

 cryst.   s(11) = (     0          0         -1      )
                  (     0          1          0      )
                  (     1          0          0      )

 cart.    s(11) = (  0.0000000  0.0000000  0.9999999 )
                  (  0.0000000  1.0000000  0.0000000 )
                  ( -1.0000001  0.0000000  0.0000000 )


      isym = 12      90 deg rotation - cart. axis [0,-1,0]       

 cryst.   s(12) = (     0          0          1      )
                  (     0          1          0      )
                  (    -1          0          0      )

 cart.    s(12) = (  0.0000000  0.0000000 -0.9999999 )
                  (  0.0000000  1.0000000  0.0000000 )
                  (  1.0000001  0.0000000  0.0000000 )


      isym = 13     180 deg rotation - cart. axis [0,1,1]        

 cryst.   s(13) = (    -1          0          0      )
                  (     0          0          1      )
                  (     0          1          0      )

 cart.    s(13) = ( -1.0000000  0.0000000  0.0000000 )
                  (  0.0000000  0.0000000  1.0000000 )
                  (  0.0000000  1.0000000  0.0000000 )


      isym = 14     180 deg rotation - cart. axis [0,1,-1]       

 cryst.   s(14) = (    -1          0          0      )
                  (     0          0         -1      )
                  (     0         -1          0      )

 cart.    s(14) = ( -1.0000000  0.0000000  0.0000000 )
                  (  0.0000000  0.0000000 -1.0000000 )
                  (  0.0000000 -1.0000000  0.0000000 )


      isym = 15      90 deg rotation - cart. axis [-1,0,0]       

 cryst.   s(15) = (     1          0          0      )
                  (     0          0         -1      )
                  (     0          1          0      )

 cart.    s(15) = (  1.0000000  0.0000000  0.0000000 )
                  (  0.0000000  0.0000000  1.0000000 )
                  (  0.0000000 -1.0000000  0.0000000 )


      isym = 16      90 deg rotation - cart. axis [1,0,0]        

 cryst.   s(16) = (     1          0          0      )
                  (     0          0          1      )
                  (     0         -1          0      )

 cart.    s(16) = (  1.0000000  0.0000000  0.0000000 )
                  (  0.0000000  0.0000000 -1.0000000 )
                  (  0.0000000  1.0000000  0.0000000 )


      isym = 17     120 deg rotation - cart. axis [-1,-1,-1]     

 cryst.   s(17) = (     0          0          1      )
                  (     1          0          0      )
                  (     0          1          0      )

 cart.    s(17) = (  0.0000000  0.9999999  0.0000000 )
                  (  0.0000000  0.0000000  1.0000000 )
                  (  1.0000001  0.0000000  0.0000000 )


      isym = 18     120 deg rotation - cart. axis [-1,1,1]       

 cryst.   s(18) = (     0          0         -1      )
                  (    -1          0          0      )
                  (     0          1          0      )

 cart.    s(18) = (  0.0000000 -0.9999999  0.0000000 )
                  (  0.0000000  0.0000000  1.0000000 )
                  ( -1.0000001  0.0000000  0.0000000 )


      isym = 19     120 deg rotation - cart. axis [1,1,-1]       

 cryst.   s(19) = (     0          0         -1      )
                  (     1          0          0      )
                  (     0         -1          0      )

 cart.    s(19) = (  0.0000000  0.9999999  0.0000000 )
                  (  0.0000000  0.0000000 -1.0000000 )
                  ( -1.0000001  0.0000000  0.0000000 )


      isym = 20     120 deg rotation - cart. axis [1,-1,1]       

 cryst.   s(20) = (     0          0          1      )
                  (    -1          0          0      )
                  (     0         -1          0      )

 cart.    s(20) = (  0.0000000 -0.9999999  0.0000000 )
                  (  0.0000000  0.0000000 -1.0000000 )
                  (  1.0000001  0.0000000  0.0000000 )


      isym = 21     120 deg rotation - cart. axis [1,1,1]        

 cryst.   s(21) = (     0          1          0      )
                  (     0          0          1      )
                  (     1          0          0      )

 cart.    s(21) = (  0.0000000  0.0000000  0.9999999 )
                  (  1.0000001  0.0000000  0.0000000 )
                  (  0.0000000  1.0000000  0.0000000 )


      isym = 22     120 deg rotation - cart. axis [-1,1,-1]      

 cryst.   s(22) = (     0         -1          0      )
                  (     0          0         -1      )
                  (     1          0          0      )

 cart.    s(22) = (  0.0000000  0.0000000  0.9999999 )
                  ( -1.0000001  0.0000000  0.0000000 )
                  (  0.0000000 -1.0000000  0.0000000 )


      isym = 23     120 deg rotation - cart. axis [1,-1,-1]      

 cryst.   s(23) = (     0         -1          0      )
                  (     0          0          1      )
                  (    -1          0          0      )

 cart.    s(23) = (  0.0000000  0.0000000 -0.9999999 )
                  ( -1.0000001  0.0000000  0.0000000 )
                  (  0.0000000  1.0000000  0.0000000 )


      isym = 24     120 deg rotation - cart. axis [-1,-1,1]      

 cryst.   s(24) = (     0          1          0      )
                  (     0          0         -1      )
                  (    -1          0          0      )

 cart.    s(24) = (  0.0000000  0.0000000 -0.9999999 )
                  (  1.0000001  0.0000000  0.0000000 )
                  (  0.0000000 -1.0000000  0.0000000 )


      isym = 25     inversion                                    

 cryst.   s(25) = (    -1          0          0      )
                  (     0         -1          0      )
                  (     0          0         -1      )

 cart.    s(25) = ( -1.0000000  0.0000000  0.0000000 )
                  (  0.0000000 -1.0000000  0.0000000 )
                  (  0.0000000  0.0000000 -1.0000000 )


      isym = 26     inv. 180 deg rotation - cart. axis [0,0,1]   

 cryst.   s(26) = (     1          0          0      )
                  (     0          1          0      )
                  (     0          0         -1      )

 cart.    s(26) = (  1.0000000  0.0000000  0.0000000 )
                  (  0.0000000  1.0000000  0.0000000 )
                  (  0.0000000  0.0000000 -1.0000000 )


      isym = 27     inv. 180 deg rotation - cart. axis [0,1,0]   

 cryst.   s(27) = (     1          0          0      )
                  (     0         -1          0      )
                  (     0          0          1      )

 cart.    s(27) = (  1.0000000  0.0000000  0.0000000 )
                  (  0.0000000 -1.0000000  0.0000000 )
                  (  0.0000000  0.0000000  1.0000000 )


      isym = 28     inv. 180 deg rotation - cart. axis [1,0,0]   

 cryst.   s(28) = (    -1          0          0      )
                  (     0          1          0      )
                  (     0          0          1      )

 cart.    s(28) = ( -1.0000000  0.0000000  0.0000000 )
                  (  0.0000000  1.0000000  0.0000000 )
                  (  0.0000000  0.0000000  1.0000000 )


      isym = 29     inv. 180 deg rotation - cart. axis [1,1,0]   

 cryst.   s(29) = (     0         -1          0      )
                  (    -1          0          0      )
                  (     0          0          1      )

 cart.    s(29) = (  0.0000000 -0.9999999  0.0000000 )
                  ( -1.0000001  0.0000000  0.0000000 )
                  (  0.0000000  0.0000000  1.0000000 )


      isym = 30     inv. 180 deg rotation - cart. axis [1,-1,0]  

 cryst.   s(30) = (     0          1          0      )
                  (     1          0          0      )
                  (     0          0          1      )

 cart.    s(30) = (  0.0000000  0.9999999  0.0000000 )
                  (  1.0000001  0.0000000  0.0000000 )
                  (  0.0000000  0.0000000  1.0000000 )


      isym = 31     inv.  90 deg rotation - cart. axis [0,0,-1]  

 cryst.   s(31) = (     0          1          0      )
                  (    -1          0          0      )
                  (     0          0         -1      )

 cart.    s(31) = (  0.0000000 -0.9999999  0.0000000 )
                  (  1.0000001  0.0000000  0.0000000 )
                  (  0.0000000  0.0000000 -1.0000000 )


      isym = 32     inv.  90 deg rotation - cart. axis [0,0,1]   

 cryst.   s(32) = (     0         -1          0      )
                  (     1          0          0      )
                  (     0          0         -1      )

 cart.    s(32) = (  0.0000000  0.9999999  0.0000000 )
                  ( -1.0000001  0.0000000  0.0000000 )
                  (  0.0000000  0.0000000 -1.0000000 )


      isym = 33     inv. 180 deg rotation - cart. axis [1,0,1]   

 cryst.   s(33) = (     0          0         -1      )
                  (     0          1          0      )
                  (    -1          0          0      )

 cart.    s(33) = (  0.0000000  0.0000000 -0.9999999 )
                  (  0.0000000  1.0000000  0.0000000 )
                  ( -1.0000001  0.0000000  0.0000000 )


      isym = 34     inv. 180 deg rotation - cart. axis [-1,0,1]  

 cryst.   s(34) = (     0          0          1      )
                  (     0          1          0      )
                  (     1          0          0      )

 cart.    s(34) = (  0.0000000  0.0000000  0.9999999 )
                  (  0.0000000  1.0000000  0.0000000 )
                  (  1.0000001  0.0000000  0.0000000 )


      isym = 35     inv.  90 deg rotation - cart. axis [0,1,0]   

 cryst.   s(35) = (     0          0          1      )
                  (     0         -1          0      )
                  (    -1          0          0      )

 cart.    s(35) = (  0.0000000  0.0000000 -0.9999999 )
                  (  0.0000000 -1.0000000  0.0000000 )
                  (  1.0000001  0.0000000  0.0000000 )


      isym = 36     inv.  90 deg rotation - cart. axis [0,-1,0]  

 cryst.   s(36) = (     0          0         -1      )
                  (     0         -1          0      )
                  (     1          0          0      )

 cart.    s(36) = (  0.0000000  0.0000000  0.9999999 )
                  (  0.0000000 -1.0000000  0.0000000 )
                  ( -1.0000001  0.0000000  0.0000000 )


      isym = 37     inv. 180 deg rotation - cart. axis [0,1,1]   

 cryst.   s(37) = (     1          0          0      )
                  (     0          0         -1      )
                  (     0         -1          0      )

 cart.    s(37) = (  1.0000000  0.0000000  0.0000000 )
                  (  0.0000000  0.0000000 -1.0000000 )
                  (  0.0000000 -1.0000000  0.0000000 )


      isym = 38     inv. 180 deg rotation - cart. axis [0,1,-1]  

 cryst.   s(38) = (     1          0          0      )
                  (     0          0          1      )
                  (     0          1          0      )

 cart.    s(38) = (  1.0000000  0.0000000  0.0000000 )
                  (  0.0000000  0.0000000  1.0000000 )
                  (  0.0000000  1.0000000  0.0000000 )


      isym = 39     inv.  90 deg rotation - cart. axis [-1,0,0]  

 cryst.   s(39) = (    -1          0          0      )
                  (     0          0          1      )
                  (     0         -1          0      )

 cart.    s(39) = ( -1.0000000  0.0000000  0.0000000 )
                  (  0.0000000  0.0000000 -1.0000000 )
                  (  0.0000000  1.0000000  0.0000000 )


      isym = 40     inv.  90 deg rotation - cart. axis [1,0,0]   

 cryst.   s(40) = (    -1          0          0      )
                  (     0          0         -1      )
                  (     0          1          0      )

 cart.    s(40) = ( -1.0000000  0.0000000  0.0000000 )
                  (  0.0000000  0.0000000  1.0000000 )
                  (  0.0000000 -1.0000000  0.0000000 )


      isym = 41     inv. 120 deg rotation - cart. axis [-1,-1,-1]

 cryst.   s(41) = (     0          0         -1      )
                  (    -1          0          0      )
                  (     0         -1          0      )

 cart.    s(41) = (  0.0000000 -0.9999999  0.0000000 )
                  (  0.0000000  0.0000000 -1.0000000 )
                  ( -1.0000001  0.0000000  0.0000000 )


      isym = 42     inv. 120 deg rotation - cart. axis [-1,1,1]  

 cryst.   s(42) = (     0          0          1      )
                  (     1          0          0      )
                  (     0         -1          0      )

 cart.    s(42) = (  0.0000000  0.9999999  0.0000000 )
                  (  0.0000000  0.0000000 -1.0000000 )
                  (  1.0000001  0.0000000  0.0000000 )


      isym = 43     inv. 120 deg rotation - cart. axis [1,1,-1]  

 cryst.   s(43) = (     0          0          1      )
                  (    -1          0          0      )
                  (     0          1          0      )

 cart.    s(43) = (  0.0000000 -0.9999999  0.0000000 )
                  (  0.0000000  0.0000000  1.0000000 )
                  (  1.0000001  0.0000000  0.0000000 )


      isym = 44     inv. 120 deg rotation - cart. axis [1,-1,1]  

 cryst.   s(44) = (     0          0         -1      )
                  (     1          0          0      )
                  (     0          1          0      )

 cart.    s(44) = (  0.0000000  0.9999999  0.0000000 )
                  (  0.0000000  0.0000000  1.0000000 )
                  ( -1.0000001  0.0000000  0.0000000 )


      isym = 45     inv. 120 deg rotation - cart. axis [1,1,1]   

 cryst.   s(45) = (     0         -1          0      )
                  (     0          0         -1      )
                  (    -1          0          0      )

 cart.    s(45) = (  0.0000000  0.0000000 -0.9999999 )
                  ( -1.0000001  0.0000000  0.0000000 )
                  (  0.0000000 -1.0000000  0.0000000 )


      isym = 46     inv. 120 deg rotation - cart. axis [-1,1,-1] 

 cryst.   s(46) = (     0          1          0      )
                  (     0          0          1      )
                  (    -1          0          0      )

 cart.    s(46) = (  0.0000000  0.0000000 -0.9999999 )
                  (  1.0000001  0.0000000  0.0000000 )
                  (  0.0000000  1.0000000  0.0000000 )


      isym = 47     inv. 120 deg rotation - cart. axis [1,-1,-1] 

 cryst.   s(47) = (     0          1          0      )
                  (     0          0         -1      )
                  (     1          0          0      )

 cart.    s(47) = (  0.0000000  0.0000000  0.9999999 )
                  (  1.0000001  0.0000000  0.0000000 )
                  (  0.0000000 -1.0000000  0.0000000 )


      isym = 48     inv. 120 deg rotation - cart. axis [-1,-1,1] 

 cryst.   s(48) = (     0         -1          0      )
                  (     0          0          1      )
                  (     1          0          0      )

 cart.    s(48) = (  0.0000000  0.0000000  0.9999999 )
                  ( -1.0000001  0.0000000  0.0000000 )
                  (  0.0000000  1.0000000  0.0000000 )


   Cartesian axes

     site n.     atom                  positions (alat units)
         1           U   tau(   1) = (   0.0000000   0.0000000   0.0000000  )
         2           U   tau(   2) = (   0.5000000   0.5000000   0.0000000  )
         3           U   tau(   3) = (   0.5000000   0.0000000   0.5000000  )
         4           U   tau(   4) = (   0.0000000   0.5000000   0.5000000  )

   Crystallographic axes

     site n.     atom                  positions (cryst. coord.)
         1           U   tau(   1) = (  0.0000000  0.0000000  0.0000000  )
         2           U   tau(   2) = (  0.5000000  0.5000000  0.0000000  )
         3           U   tau(   3) = (  0.5000000  0.0000000  0.5000000  )
         4           U   tau(   4) = (  0.0000000  0.5000000  0.5000000  )

     number of k points=    20  Marzari-Vanderbilt smearing, width (Ry)=  0.0500
                       cart. coord. in units 2pi/alat
        k(    1) = (   0.0000000   0.0000000   0.0000000), wk =   0.0046296
        k(    2) = (   0.0000000   0.0000000   0.1666667), wk =   0.0277778
        k(    3) = (   0.0000000   0.0000000   0.3333333), wk =   0.0277778
        k(    4) = (   0.0000000   0.0000000  -0.5000000), wk =   0.0138889
        k(    5) = (   0.0000000   0.1666667   0.1666667), wk =   0.0555556
        k(    6) = (   0.0000000   0.1666667   0.3333333), wk =   0.1111111
        k(    7) = (   0.0000000   0.1666667  -0.5000000), wk =   0.0555556
        k(    8) = (   0.0000000   0.3333333   0.3333333), wk =   0.0555556
        k(    9) = (   0.0000000   0.3333333  -0.5000000), wk =   0.0555556
        k(   10) = (   0.0000000  -0.5000000  -0.5000000), wk =   0.0138889
        k(   11) = (   0.1666667   0.1666667   0.1666667), wk =   0.0370370
        k(   12) = (   0.1666667   0.1666667   0.3333333), wk =   0.1111111
        k(   13) = (   0.1666667   0.1666667  -0.5000000), wk =   0.0555556
        k(   14) = (   0.1666667   0.3333333   0.3333333), wk =   0.1111111
        k(   15) = (   0.1666667   0.3333333  -0.5000000), wk =   0.1111111
        k(   16) = (   0.1666667  -0.5000000  -0.5000000), wk =   0.0277778
        k(   17) = (   0.3333333   0.3333333   0.3333333), wk =   0.0370370
        k(   18) = (   0.3333333   0.3333333  -0.5000000), wk =   0.0555556
        k(   19) = (   0.3333333  -0.5000000  -0.5000000), wk =   0.0277778
        k(   20) = (  -0.5000000  -0.5000000  -0.5000000), wk =   0.0046296

                       cryst. coord.
        k(    1) = (   0.0000000   0.0000000   0.0000000), wk =   0.0046296
        k(    2) = (   0.0000000   0.0000000   0.1666667), wk =   0.0277778
        k(    3) = (   0.0000000   0.0000000   0.3333333), wk =   0.0277778
        k(    4) = (   0.0000000   0.0000000  -0.5000000), wk =   0.0138889
        k(    5) = (   0.0000000   0.1666667   0.1666667), wk =   0.0555556
        k(    6) = (   0.0000000   0.1666667   0.3333333), wk =   0.1111111
        k(    7) = (   0.0000000   0.1666667  -0.5000000), wk =   0.0555556
        k(    8) = (   0.0000000   0.3333333   0.3333333), wk =   0.0555556
        k(    9) = (   0.0000000   0.3333333  -0.5000000), wk =   0.0555556
        k(   10) = (   0.0000000  -0.5000000  -0.5000000), wk =   0.0138889
        k(   11) = (   0.1666667   0.1666667   0.1666667), wk =   0.0370370
        k(   12) = (   0.1666667   0.1666667   0.3333333), wk =   0.1111111
        k(   13) = (   0.1666667   0.1666667  -0.5000000), wk =   0.0555556
        k(   14) = (   0.1666667   0.3333333   0.3333333), wk =   0.1111111
        k(   15) = (   0.1666667   0.3333333  -0.5000000), wk =   0.1111111
        k(   16) = (   0.1666667  -0.5000000  -0.5000000), wk =   0.0277778
        k(   17) = (   0.3333333   0.3333333   0.3333333), wk =   0.0370370
        k(   18) = (   0.3333333   0.3333333  -0.5000000), wk =   0.0555556
        k(   19) = (   0.3333333  -0.5000000  -0.5000000), wk =   0.0277778
        k(   20) = (  -0.5000000  -0.5000000  -0.5000000), wk =   0.0046296

     Dense  grid:   201485 G-vectors     FFT dimensions: (  75,  75,  75)

     Smooth grid:    71327 G-vectors     FFT dimensions: (  54,  54,  54)

     Dynamical RAM for                 wfc:       0.14 MB

     Dynamical RAM for     wfc (w. buffer):       5.57 MB

     Dynamical RAM for           str. fact:       0.10 MB

     Dynamical RAM for           local pot:       0.00 MB

     Dynamical RAM for          nlocal pot:       0.54 MB

     Dynamical RAM for                qrad:      10.50 MB

     Dynamical RAM for          rho,v,vnew:       1.35 MB

     Dynamical RAM for               rhoin:       0.45 MB

     Dynamical RAM for            rho*nmix:       3.07 MB

     Dynamical RAM for           G-vectors:       0.38 MB

     Dynamical RAM for          h,s,v(r/c):       0.19 MB

     Dynamical RAM for          <psi|beta>:       0.06 MB

     Dynamical RAM for                 psi:       0.27 MB

     Dynamical RAM for                hpsi:       0.27 MB

     Dynamical RAM for                spsi:       0.27 MB

     Dynamical RAM for      wfcinit/wfcrot:       0.30 MB

     Dynamical RAM for           addusdens:      53.80 MB

     Dynamical RAM for          addusforce:      54.47 MB

     Dynamical RAM for         addusstress:      56.06 MB

     Estimated static dynamical RAM per process >      19.85 MB

     Estimated max dynamical RAM per process >      78.98 MB

     Estimated total dynamical RAM >       2.47 GB
     Generating pointlists ...
     new r_m :   0.2917 (alat units)  2.4436 (a.u.) for type    1

     Initial potential from superposition of free atoms

     starting charge   55.98204, renormalised to   56.00000
     Starting wfcs are random

     total cpu time spent up to now is        4.3 secs

     Self-consistent Calculation

     iteration #  1     ecut=    93.00 Ry     beta= 0.50
     Davidson diagonalization with overlap

---- Real-time Memory Report at c_bands before calling an iterative solver
            93 MiB given to the printing process from OS
             0 MiB allocation reported by mallinfo(arena+hblkhd)
         40824 MiB available memory on the node where the printing process lives
------------------
     ethr =  1.00E-02,  avg # of iterations = 11.3

     total cpu time spent up to now is       19.8 secs

     total energy              =    -516.14463813 Ry
     estimated scf accuracy    <       1.79622858 Ry

     total magnetization       =     2.43 Bohr mag/cell
     absolute magnetization    =     2.43 Bohr mag/cell

     iteration #  2     ecut=    93.00 Ry     beta= 0.50
     Davidson diagonalization with overlap

---- Real-time Memory Report at c_bands before calling an iterative solver
           101 MiB given to the printing process from OS
             0 MiB allocation reported by mallinfo(arena+hblkhd)
         40662 MiB available memory on the node where the printing process lives
------------------
     ethr =  3.21E-03,  avg # of iterations =  6.9

     total cpu time spent up to now is       29.5 secs

     total energy              =    -517.12945658 Ry
     estimated scf accuracy    <       1.62803667 Ry

     total magnetization       =     2.87 Bohr mag/cell
     absolute magnetization    =     2.87 Bohr mag/cell

     iteration #  3     ecut=    93.00 Ry     beta= 0.50
     Davidson diagonalization with overlap

---- Real-time Memory Report at c_bands before calling an iterative solver
           101 MiB given to the printing process from OS
             0 MiB allocation reported by mallinfo(arena+hblkhd)
         40664 MiB available memory on the node where the printing process lives
------------------
     ethr =  2.91E-03,  avg # of iterations =  2.0

     total cpu time spent up to now is       35.1 secs

     total energy              =    -517.30997049 Ry
     estimated scf accuracy    <       0.19007707 Ry

     total magnetization       =     2.15 Bohr mag/cell
     absolute magnetization    =     2.15 Bohr mag/cell

     iteration #  4     ecut=    93.00 Ry     beta= 0.50
     Davidson diagonalization with overlap

---- Real-time Memory Report at c_bands before calling an iterative solver
           101 MiB given to the printing process from OS
             0 MiB allocation reported by mallinfo(arena+hblkhd)
         40663 MiB available memory on the node where the printing process lives
------------------
     c_bands:  1 eigenvalues not converged
     c_bands:  2 eigenvalues not converged
     c_bands:  3 eigenvalues not converged
     c_bands:  3 eigenvalues not converged
     c_bands:  3 eigenvalues not converged
     c_bands:  1 eigenvalues not converged
     c_bands:  1 eigenvalues not converged
     c_bands:  1 eigenvalues not converged
     c_bands:  2 eigenvalues not converged
     c_bands:  3 eigenvalues not converged
     c_bands:  5 eigenvalues not converged
     c_bands:  1 eigenvalues not converged
     c_bands:  5 eigenvalues not converged
     c_bands:  3 eigenvalues not converged
     c_bands:  1 eigenvalues not converged
     c_bands:  1 eigenvalues not converged
     c_bands:  1 eigenvalues not converged
     c_bands:  3 eigenvalues not converged
     c_bands:  2 eigenvalues not converged
     c_bands:  1 eigenvalues not converged
     c_bands:  2 eigenvalues not converged
     c_bands:  1 eigenvalues not converged
     c_bands:  3 eigenvalues not converged
     c_bands:  5 eigenvalues not converged
     c_bands:  5 eigenvalues not converged
     c_bands:  1 eigenvalues not converged
     ethr =  3.39E-04,  avg # of iterations = 18.6

     total cpu time spent up to now is       48.0 secs

     total energy              =    -517.41630227 Ry
     estimated scf accuracy    <       0.50307309 Ry

     total magnetization       =     2.26 Bohr mag/cell
     absolute magnetization    =     2.27 Bohr mag/cell

     iteration #  5     ecut=    93.00 Ry     beta= 0.50
     Davidson diagonalization with overlap

---- Real-time Memory Report at c_bands before calling an iterative solver
           102 MiB given to the printing process from OS
             0 MiB allocation reported by mallinfo(arena+hblkhd)
         40662 MiB available memory on the node where the printing process lives
------------------
     c_bands:  1 eigenvalues not converged
     c_bands:  3 eigenvalues not converged
     c_bands:  2 eigenvalues not converged
     c_bands:  1 eigenvalues not converged
     c_bands:  1 eigenvalues not converged
     c_bands:  1 eigenvalues not converged
     c_bands:  1 eigenvalues not converged
     c_bands:  1 eigenvalues not converged
     ethr =  3.39E-04,  avg # of iterations = 13.4

     total cpu time spent up to now is       56.6 secs

     total energy              =    -517.46022334 Ry
     estimated scf accuracy    <       0.01158809 Ry

     total magnetization       =     2.00 Bohr mag/cell
     absolute magnetization    =     2.01 Bohr mag/cell

     iteration #  6     ecut=    93.00 Ry     beta= 0.50
     Davidson diagonalization with overlap

---- Real-time Memory Report at c_bands before calling an iterative solver
           102 MiB given to the printing process from OS
             0 MiB allocation reported by mallinfo(arena+hblkhd)
         40657 MiB available memory on the node where the printing process lives
------------------
     c_bands:  2 eigenvalues not converged
     c_bands:  2 eigenvalues not converged
     c_bands:  3 eigenvalues not converged
     c_bands:  1 eigenvalues not converged
     c_bands:  2 eigenvalues not converged
     c_bands:  2 eigenvalues not converged
     c_bands:  3 eigenvalues not converged
     c_bands:  1 eigenvalues not converged
     c_bands:  2 eigenvalues not converged
     c_bands:  3 eigenvalues not converged
     c_bands:  4 eigenvalues not converged
     c_bands:  4 eigenvalues not converged
     c_bands:  1 eigenvalues not converged
     c_bands:  3 eigenvalues not converged
     c_bands:  4 eigenvalues not converged
     c_bands:  5 eigenvalues not converged
     c_bands:  3 eigenvalues not converged
     c_bands:  1 eigenvalues not converged
     c_bands:  1 eigenvalues not converged
     c_bands:  4 eigenvalues not converged
     c_bands:  2 eigenvalues not converged
     c_bands:  1 eigenvalues not converged
     c_bands:  3 eigenvalues not converged
     c_bands:  2 eigenvalues not converged
     c_bands:  2 eigenvalues not converged
     c_bands:  2 eigenvalues not converged
     c_bands:  1 eigenvalues not converged
     c_bands:  5 eigenvalues not converged
     c_bands:  3 eigenvalues not converged
     c_bands:  3 eigenvalues not converged
     c_bands:  3 eigenvalues not converged
     c_bands:  4 eigenvalues not converged
     ethr =  2.07E-05,  avg # of iterations = 21.3

     total cpu time spent up to now is       73.2 secs

     total energy              =    -517.47820502 Ry
     estimated scf accuracy    <       0.03141555 Ry

     total magnetization       =     1.83 Bohr mag/cell
     absolute magnetization    =     1.85 Bohr mag/cell

     iteration #  7     ecut=    93.00 Ry     beta= 0.50
     Davidson diagonalization with overlap

---- Real-time Memory Report at c_bands before calling an iterative solver
           102 MiB given to the printing process from OS
             0 MiB allocation reported by mallinfo(arena+hblkhd)
         40654 MiB available memory on the node where the printing process lives
------------------
     c_bands:  2 eigenvalues not converged
     c_bands:  1 eigenvalues not converged
     c_bands:  1 eigenvalues not converged
     c_bands:  1 eigenvalues not converged
     c_bands:  1 eigenvalues not converged
     c_bands:  2 eigenvalues not converged
     c_bands:  1 eigenvalues not converged
     c_bands:  1 eigenvalues not converged
     c_bands:  1 eigenvalues not converged
     c_bands:  4 eigenvalues not converged
     c_bands:  1 eigenvalues not converged
     c_bands:  3 eigenvalues not converged
     c_bands:  1 eigenvalues not converged
     c_bands:  1 eigenvalues not converged
     ethr =  2.07E-05,  avg # of iterations = 13.6

     total cpu time spent up to now is       82.1 secs

     total energy              =    -517.48232151 Ry
     estimated scf accuracy    <       0.00070179 Ry

     total magnetization       =     1.70 Bohr mag/cell
     absolute magnetization    =     1.73 Bohr mag/cell

     iteration #  8     ecut=    93.00 Ry     beta= 0.50
     Davidson diagonalization with overlap

---- Real-time Memory Report at c_bands before calling an iterative solver
           102 MiB given to the printing process from OS
             0 MiB allocation reported by mallinfo(arena+hblkhd)
         40653 MiB available memory on the node where the printing process lives
------------------
     c_bands:  1 eigenvalues not converged
     c_bands:  5 eigenvalues not converged
     c_bands:  2 eigenvalues not converged
     c_bands:  2 eigenvalues not converged
     c_bands:  2 eigenvalues not converged
     c_bands:  1 eigenvalues not converged
     c_bands:  2 eigenvalues not converged
     c_bands:  5 eigenvalues not converged
     c_bands:  4 eigenvalues not converged
     c_bands:  4 eigenvalues not converged
     c_bands:  1 eigenvalues not converged
     c_bands:  3 eigenvalues not converged
     c_bands:  2 eigenvalues not converged
     c_bands:  4 eigenvalues not converged
     c_bands:  2 eigenvalues not converged
     c_bands:  1 eigenvalues not converged
     c_bands:  5 eigenvalues not converged
     c_bands:  4 eigenvalues not converged
     c_bands:  4 eigenvalues not converged
     c_bands:  1 eigenvalues not converged
     c_bands:  1 eigenvalues not converged
     c_bands:  4 eigenvalues not converged
     c_bands:  2 eigenvalues not converged
     c_bands:  3 eigenvalues not converged
     c_bands:  3 eigenvalues not converged
     c_bands:  2 eigenvalues not converged
     c_bands:  3 eigenvalues not converged
     c_bands:  2 eigenvalues not converged
     c_bands:  1 eigenvalues not converged
     c_bands:  4 eigenvalues not converged
     c_bands:  3 eigenvalues not converged
     c_bands:  2 eigenvalues not converged
     c_bands:  3 eigenvalues not converged
     c_bands:  2 eigenvalues not converged
     c_bands:  4 eigenvalues not converged
     ethr =  1.25E-06,  avg # of iterations = 19.4

     total cpu time spent up to now is       97.6 secs

     total energy              =    -517.48401626 Ry
     estimated scf accuracy    <       0.00608457 Ry

     total magnetization       =     1.60 Bohr mag/cell
     absolute magnetization    =     1.63 Bohr mag/cell

     iteration #  9     ecut=    93.00 Ry     beta= 0.50
     Davidson diagonalization with overlap

---- Real-time Memory Report at c_bands before calling an iterative solver
           103 MiB given to the printing process from OS
             0 MiB allocation reported by mallinfo(arena+hblkhd)
         40649 MiB available memory on the node where the printing process lives
------------------
     c_bands:  2 eigenvalues not converged
     c_bands:  1 eigenvalues not converged
     c_bands:  1 eigenvalues not converged
     c_bands:  4 eigenvalues not converged
     c_bands:  3 eigenvalues not converged
     c_bands:  3 eigenvalues not converged
     c_bands:  2 eigenvalues not converged
     c_bands:  1 eigenvalues not converged
     c_bands:  4 eigenvalues not converged
     c_bands:  1 eigenvalues not converged
     c_bands:  2 eigenvalues not converged
     c_bands:  2 eigenvalues not converged
     c_bands:  1 eigenvalues not converged
     c_bands:  4 eigenvalues not converged
     c_bands:  1 eigenvalues not converged
     ethr =  1.25E-06,  avg # of iterations = 12.9

     total cpu time spent up to now is      105.9 secs

     total energy              =    -517.48420598 Ry
     estimated scf accuracy    <       0.00205360 Ry

     total magnetization       =     1.58 Bohr mag/cell
     absolute magnetization    =     1.61 Bohr mag/cell

     iteration # 10     ecut=    93.00 Ry     beta= 0.50
     Davidson diagonalization with overlap

---- Real-time Memory Report at c_bands before calling an iterative solver
           103 MiB given to the printing process from OS
             0 MiB allocation reported by mallinfo(arena+hblkhd)
         40631 MiB available memory on the node where the printing process lives
------------------
     c_bands:  2 eigenvalues not converged
     c_bands:  1 eigenvalues not converged
     c_bands:  1 eigenvalues not converged
     c_bands:  1 eigenvalues not converged
     c_bands:  3 eigenvalues not converged
     c_bands:  4 eigenvalues not converged
     c_bands:  2 eigenvalues not converged
     c_bands:  1 eigenvalues not converged
     c_bands:  1 eigenvalues not converged
     c_bands:  1 eigenvalues not converged
     c_bands:  1 eigenvalues not converged
     c_bands:  2 eigenvalues not converged
     c_bands:  2 eigenvalues not converged
     c_bands:  3 eigenvalues not converged
     c_bands:  4 eigenvalues not converged
     c_bands:  1 eigenvalues not converged
     c_bands:  3 eigenvalues not converged
     c_bands:  2 eigenvalues not converged
     ethr =  1.25E-06,  avg # of iterations = 16.6

     total cpu time spent up to now is      117.7 secs

     total energy              =    -517.48464384 Ry
     estimated scf accuracy    <       0.00373735 Ry

     total magnetization       =     1.47 Bohr mag/cell
     absolute magnetization    =     1.50 Bohr mag/cell

     iteration # 11     ecut=    93.00 Ry     beta= 0.50
     Davidson diagonalization with overlap

---- Real-time Memory Report at c_bands before calling an iterative solver
           103 MiB given to the printing process from OS
             0 MiB allocation reported by mallinfo(arena+hblkhd)
         40641 MiB available memory on the node where the printing process lives
------------------
     c_bands:  1 eigenvalues not converged
     c_bands:  3 eigenvalues not converged
     c_bands:  1 eigenvalues not converged
     c_bands:  2 eigenvalues not converged
     c_bands:  3 eigenvalues not converged
     ethr =  1.25E-06,  avg # of iterations =  5.8

     total cpu time spent up to now is      123.8 secs

     total energy              =    -517.48454247 Ry
     estimated scf accuracy    <       0.00235681 Ry

     total magnetization       =     1.44 Bohr mag/cell
     absolute magnetization    =     1.47 Bohr mag/cell

     iteration # 12     ecut=    93.00 Ry     beta= 0.50
     Davidson diagonalization with overlap

---- Real-time Memory Report at c_bands before calling an iterative solver
           103 MiB given to the printing process from OS
             0 MiB allocation reported by mallinfo(arena+hblkhd)
         40640 MiB available memory on the node where the printing process lives
------------------
     c_bands:  1 eigenvalues not converged
     c_bands:  4 eigenvalues not converged
     c_bands:  2 eigenvalues not converged
     c_bands:  1 eigenvalues not converged
     ethr =  1.25E-06,  avg # of iterations = 10.5

     total cpu time spent up to now is      131.6 secs

     total energy              =    -517.48467459 Ry
     estimated scf accuracy    <       0.00010672 Ry

     total magnetization       =     1.38 Bohr mag/cell
     absolute magnetization    =     1.41 Bohr mag/cell

     iteration # 13     ecut=    93.00 Ry     beta= 0.50
     Davidson diagonalization with overlap

---- Real-time Memory Report at c_bands before calling an iterative solver
           104 MiB given to the printing process from OS
             0 MiB allocation reported by mallinfo(arena+hblkhd)
         40645 MiB available memory on the node where the printing process lives
------------------
     c_bands:  1 eigenvalues not converged
     c_bands:  1 eigenvalues not converged
     c_bands:  1 eigenvalues not converged
     c_bands:  2 eigenvalues not converged
     c_bands:  4 eigenvalues not converged
     c_bands:  2 eigenvalues not converged
     c_bands:  1 eigenvalues not converged
     c_bands:  2 eigenvalues not converged
     c_bands:  4 eigenvalues not converged
     c_bands:  3 eigenvalues not converged
     c_bands:  2 eigenvalues not converged
     c_bands:  1 eigenvalues not converged
     ethr =  1.91E-07,  avg # of iterations = 13.3

     total cpu time spent up to now is      141.5 secs

     total energy              =    -517.48473587 Ry
     estimated scf accuracy    <       0.00001746 Ry

     total magnetization       =     1.36 Bohr mag/cell
     absolute magnetization    =     1.39 Bohr mag/cell

     iteration # 14     ecut=    93.00 Ry     beta= 0.50
     Davidson diagonalization with overlap

---- Real-time Memory Report at c_bands before calling an iterative solver
           104 MiB given to the printing process from OS
             0 MiB allocation reported by mallinfo(arena+hblkhd)
         40647 MiB available memory on the node where the printing process lives
------------------
     c_bands:  1 eigenvalues not converged
     c_bands:  1 eigenvalues not converged
     c_bands:  1 eigenvalues not converged
     c_bands:  2 eigenvalues not converged
     c_bands:  1 eigenvalues not converged
     c_bands:  2 eigenvalues not converged
     c_bands:  3 eigenvalues not converged
     c_bands:  4 eigenvalues not converged
     c_bands:  2 eigenvalues not converged
     c_bands:  1 eigenvalues not converged
     c_bands:  1 eigenvalues not converged
     c_bands:  2 eigenvalues not converged
     c_bands:  1 eigenvalues not converged
     c_bands:  1 eigenvalues not converged
     c_bands:  2 eigenvalues not converged
     c_bands:  2 eigenvalues not converged
     c_bands:  3 eigenvalues not converged
     c_bands:  4 eigenvalues not converged
     c_bands:  3 eigenvalues not converged
     c_bands:  1 eigenvalues not converged
     c_bands:  2 eigenvalues not converged
     c_bands:  2 eigenvalues not converged
     ethr =  3.12E-08,  avg # of iterations = 17.7

     total cpu time spent up to now is      154.3 secs

     total energy              =    -517.48471694 Ry
     estimated scf accuracy    <       0.00012464 Ry

     total magnetization       =     1.29 Bohr mag/cell
     absolute magnetization    =     1.32 Bohr mag/cell

     iteration # 15     ecut=    93.00 Ry     beta= 0.50
     Davidson diagonalization with overlap

---- Real-time Memory Report at c_bands before calling an iterative solver
           104 MiB given to the printing process from OS
             0 MiB allocation reported by mallinfo(arena+hblkhd)
         40645 MiB available memory on the node where the printing process lives
------------------
     c_bands:  2 eigenvalues not converged
     c_bands:  3 eigenvalues not converged
     c_bands:  1 eigenvalues not converged
     c_bands:  1 eigenvalues not converged
     c_bands:  2 eigenvalues not converged
     c_bands:  3 eigenvalues not converged
     c_bands:  4 eigenvalues not converged
     c_bands:  3 eigenvalues not converged
     c_bands:  2 eigenvalues not converged
     c_bands:  3 eigenvalues not converged
     c_bands:  1 eigenvalues not converged
     c_bands:  2 eigenvalues not converged
     c_bands:  1 eigenvalues not converged
     c_bands:  2 eigenvalues not converged
     c_bands:  2 eigenvalues not converged
     c_bands:  4 eigenvalues not converged
     c_bands:  4 eigenvalues not converged
     c_bands:  3 eigenvalues not converged
     c_bands:  2 eigenvalues not converged
     c_bands:  2 eigenvalues not converged
     c_bands:  1 eigenvalues not converged
     c_bands:  2 eigenvalues not converged
     ethr =  3.12E-08,  avg # of iterations = 16.7

     total cpu time spent up to now is      167.4 secs

     total energy              =    -517.48464593 Ry
     estimated scf accuracy    <       0.00002427 Ry

     total magnetization       =     1.13 Bohr mag/cell
     absolute magnetization    =     1.16 Bohr mag/cell

     iteration # 16     ecut=    93.00 Ry     beta= 0.50
     Davidson diagonalization with overlap

---- Real-time Memory Report at c_bands before calling an iterative solver
           104 MiB given to the printing process from OS
             0 MiB allocation reported by mallinfo(arena+hblkhd)
         40651 MiB available memory on the node where the printing process lives
------------------
     c_bands:  2 eigenvalues not converged
     c_bands:  2 eigenvalues not converged
     c_bands:  1 eigenvalues not converged
     c_bands:  2 eigenvalues not converged
     c_bands:  3 eigenvalues not converged
     c_bands:  4 eigenvalues not converged
     c_bands:  2 eigenvalues not converged
     c_bands:  2 eigenvalues not converged
     c_bands:  2 eigenvalues not converged
     c_bands:  1 eigenvalues not converged
     c_bands:  2 eigenvalues not converged
     c_bands:  4 eigenvalues not converged
     c_bands:  3 eigenvalues not converged
     c_bands:  3 eigenvalues not converged
     c_bands:  2 eigenvalues not converged
     c_bands:  5 eigenvalues not converged
     c_bands:  4 eigenvalues not converged
     c_bands:  2 eigenvalues not converged
     c_bands:  4 eigenvalues not converged
     c_bands:  4 eigenvalues not converged
     c_bands:  5 eigenvalues not converged
     c_bands:  4 eigenvalues not converged
     c_bands:  4 eigenvalues not converged
     c_bands:  4 eigenvalues not converged
     c_bands:  3 eigenvalues not converged
     c_bands:  3 eigenvalues not converged
     c_bands:  5 eigenvalues not converged
     c_bands:  3 eigenvalues not converged
     ethr =  3.12E-08,  avg # of iterations = 17.6

     total cpu time spent up to now is      182.3 secs

     total energy              =    -517.48489753 Ry
     estimated scf accuracy    <       0.00064521 Ry

     total magnetization       =     0.89 Bohr mag/cell
     absolute magnetization    =     0.91 Bohr mag/cell

     iteration # 17     ecut=    93.00 Ry     beta= 0.50
     Davidson diagonalization with overlap

---- Real-time Memory Report at c_bands before calling an iterative solver
           104 MiB given to the printing process from OS
             0 MiB allocation reported by mallinfo(arena+hblkhd)
         40651 MiB available memory on the node where the printing process lives
------------------
     c_bands:  1 eigenvalues not converged
     c_bands:  1 eigenvalues not converged
     c_bands:  1 eigenvalues not converged
     c_bands:  2 eigenvalues not converged
     c_bands:  3 eigenvalues not converged
     c_bands:  4 eigenvalues not converged
     c_bands:  2 eigenvalues not converged
     c_bands:  2 eigenvalues not converged
     c_bands:  2 eigenvalues not converged
     c_bands:  2 eigenvalues not converged
     c_bands:  2 eigenvalues not converged
     c_bands:  4 eigenvalues not converged
     c_bands:  3 eigenvalues not converged
     c_bands:  2 eigenvalues not converged
     ethr =  3.12E-08,  avg # of iterations = 11.1

     total cpu time spent up to now is      190.7 secs

     total energy              =    -517.48479885 Ry
     estimated scf accuracy    <       0.00067693 Ry

     total magnetization       =     0.96 Bohr mag/cell
     absolute magnetization    =     0.98 Bohr mag/cell

     iteration # 18     ecut=    93.00 Ry     beta= 0.50
     Davidson diagonalization with overlap

---- Real-time Memory Report at c_bands before calling an iterative solver
           104 MiB given to the printing process from OS
             0 MiB allocation reported by mallinfo(arena+hblkhd)
         40649 MiB available memory on the node where the printing process lives
------------------
     c_bands:  3 eigenvalues not converged
     c_bands:  2 eigenvalues not converged
     c_bands:  2 eigenvalues not converged
     c_bands:  3 eigenvalues not converged
     c_bands:  2 eigenvalues not converged
     c_bands:  4 eigenvalues not converged
     c_bands:  4 eigenvalues not converged
     c_bands:  2 eigenvalues not converged
     c_bands:  4 eigenvalues not converged
     c_bands:  2 eigenvalues not converged
     c_bands:  3 eigenvalues not converged
     c_bands:  2 eigenvalues not converged
     c_bands:  3 eigenvalues not converged
     c_bands:  2 eigenvalues not converged
     c_bands:  2 eigenvalues not converged
     c_bands:  1 eigenvalues not converged
     c_bands:  4 eigenvalues not converged
     c_bands:  3 eigenvalues not converged
     c_bands:  2 eigenvalues not converged
     c_bands:  2 eigenvalues not converged
     c_bands:  1 eigenvalues not converged
     ethr =  3.12E-08,  avg # of iterations = 16.4

     total cpu time spent up to now is      204.2 secs

     total energy              =    -517.48499775 Ry
     estimated scf accuracy    <       0.00004404 Ry

     total magnetization       =     0.77 Bohr mag/cell
     absolute magnetization    =     0.79 Bohr mag/cell

     iteration # 19     ecut=    93.00 Ry     beta= 0.50
     Davidson diagonalization with overlap

---- Real-time Memory Report at c_bands before calling an iterative solver
           104 MiB given to the printing process from OS
             0 MiB allocation reported by mallinfo(arena+hblkhd)
         40658 MiB available memory on the node where the printing process lives
------------------
     c_bands:  2 eigenvalues not converged
     c_bands:  1 eigenvalues not converged
     c_bands:  2 eigenvalues not converged
     c_bands:  2 eigenvalues not converged
     c_bands:  4 eigenvalues not converged
     c_bands:  3 eigenvalues not converged
     c_bands:  1 eigenvalues not converged
     c_bands:  1 eigenvalues not converged
     c_bands:  2 eigenvalues not converged
     c_bands:  2 eigenvalues not converged
     c_bands:  2 eigenvalues not converged
     c_bands:  1 eigenvalues not converged
     c_bands:  4 eigenvalues not converged
     c_bands:  3 eigenvalues not converged
     c_bands:  2 eigenvalues not converged
     c_bands:  1 eigenvalues not converged
     ethr =  3.12E-08,  avg # of iterations = 11.7

     total cpu time spent up to now is      212.2 secs

     total energy              =    -517.48502865 Ry
     estimated scf accuracy    <       0.00004622 Ry

     total magnetization       =     0.72 Bohr mag/cell
     absolute magnetization    =     0.74 Bohr mag/cell

     iteration # 20     ecut=    93.00 Ry     beta= 0.50
     Davidson diagonalization with overlap

---- Real-time Memory Report at c_bands before calling an iterative solver
           104 MiB given to the printing process from OS
             0 MiB allocation reported by mallinfo(arena+hblkhd)
         40658 MiB available memory on the node where the printing process lives
------------------
     c_bands:  1 eigenvalues not converged
     c_bands:  2 eigenvalues not converged
     c_bands:  1 eigenvalues not converged
     c_bands:  2 eigenvalues not converged
     c_bands:  3 eigenvalues not converged
     c_bands:  3 eigenvalues not converged
     c_bands:  1 eigenvalues not converged
     c_bands:  1 eigenvalues not converged
     c_bands:  1 eigenvalues not converged
     c_bands:  2 eigenvalues not converged
     c_bands:  1 eigenvalues not converged
     c_bands:  1 eigenvalues not converged
     c_bands:  4 eigenvalues not converged
     c_bands:  3 eigenvalues not converged
     c_bands:  2 eigenvalues not converged
     ethr =  3.12E-08,  avg # of iterations = 12.7

     total cpu time spent up to now is      220.5 secs

     total energy              =    -517.48504151 Ry
     estimated scf accuracy    <       0.00005204 Ry

     total magnetization       =     0.69 Bohr mag/cell
     absolute magnetization    =     0.71 Bohr mag/cell

     iteration # 21     ecut=    93.00 Ry     beta= 0.50
     Davidson diagonalization with overlap

---- Real-time Memory Report at c_bands before calling an iterative solver
           104 MiB given to the printing process from OS
             0 MiB allocation reported by mallinfo(arena+hblkhd)
         40645 MiB available memory on the node where the printing process lives
------------------
     c_bands:  1 eigenvalues not converged
     c_bands:  1 eigenvalues not converged
     c_bands:  1 eigenvalues not converged
     c_bands:  3 eigenvalues not converged
     c_bands:  1 eigenvalues not converged
     c_bands:  1 eigenvalues not converged
     c_bands:  2 eigenvalues not converged
     c_bands:  1 eigenvalues not converged
     c_bands:  4 eigenvalues not converged
     c_bands:  4 eigenvalues not converged
     c_bands:  1 eigenvalues not converged
     ethr =  3.12E-08,  avg # of iterations =  6.4

     total cpu time spent up to now is      226.5 secs

     total energy              =    -517.48500047 Ry
     estimated scf accuracy    <       0.00003701 Ry

     total magnetization       =     0.70 Bohr mag/cell
     absolute magnetization    =     0.72 Bohr mag/cell

     iteration # 22     ecut=    93.00 Ry     beta= 0.50
     Davidson diagonalization with overlap

---- Real-time Memory Report at c_bands before calling an iterative solver
           104 MiB given to the printing process from OS
             0 MiB allocation reported by mallinfo(arena+hblkhd)
         40646 MiB available memory on the node where the printing process lives
------------------
     c_bands:  2 eigenvalues not converged
     c_bands:  2 eigenvalues not converged
     c_bands:  2 eigenvalues not converged
     c_bands:  2 eigenvalues not converged
     c_bands:  1 eigenvalues not converged
     c_bands:  1 eigenvalues not converged
     c_bands:  2 eigenvalues not converged
     c_bands:  1 eigenvalues not converged
     c_bands:  4 eigenvalues not converged
     c_bands:  4 eigenvalues not converged
     c_bands:  2 eigenvalues not converged
     c_bands:  1 eigenvalues not converged
     ethr =  3.12E-08,  avg # of iterations = 12.0

     total cpu time spent up to now is      235.5 secs

     total energy              =    -517.48504554 Ry
     estimated scf accuracy    <       0.00002033 Ry

     total magnetization       =     0.78 Bohr mag/cell
     absolute magnetization    =     0.80 Bohr mag/cell

     iteration # 23     ecut=    93.00 Ry     beta= 0.50
     Davidson diagonalization with overlap

---- Real-time Memory Report at c_bands before calling an iterative solver
           104 MiB given to the printing process from OS
             0 MiB allocation reported by mallinfo(arena+hblkhd)
         40652 MiB available memory on the node where the printing process lives
------------------
     c_bands:  1 eigenvalues not converged
     c_bands:  2 eigenvalues not converged
     c_bands:  2 eigenvalues not converged
     c_bands:  3 eigenvalues not converged
     c_bands:  1 eigenvalues not converged
     c_bands:  1 eigenvalues not converged
     c_bands:  2 eigenvalues not converged
     c_bands:  1 eigenvalues not converged
     c_bands:  4 eigenvalues not converged
     c_bands:  2 eigenvalues not converged
     ethr =  3.12E-08,  avg # of iterations = 10.9

     total cpu time spent up to now is      242.7 secs

     total energy              =    -517.48505838 Ry
     estimated scf accuracy    <       0.00001699 Ry

     total magnetization       =     0.77 Bohr mag/cell
     absolute magnetization    =     0.79 Bohr mag/cell

     iteration # 24     ecut=    93.00 Ry     beta= 0.50
     Davidson diagonalization with overlap

---- Real-time Memory Report at c_bands before calling an iterative solver
           105 MiB given to the printing process from OS
             0 MiB allocation reported by mallinfo(arena+hblkhd)
         40651 MiB available memory on the node where the printing process lives
------------------
     c_bands:  1 eigenvalues not converged
     c_bands:  1 eigenvalues not converged
     c_bands:  2 eigenvalues not converged
     c_bands:  2 eigenvalues not converged
     c_bands:  3 eigenvalues not converged
     c_bands:  1 eigenvalues not converged
     c_bands:  2 eigenvalues not converged
     c_bands:  2 eigenvalues not converged
     c_bands:  2 eigenvalues not converged
     c_bands:  1 eigenvalues not converged
     c_bands:  3 eigenvalues not converged
     c_bands:  2 eigenvalues not converged
     ethr =  3.03E-08,  avg # of iterations = 10.2

     total cpu time spent up to now is      250.2 secs

     total energy              =    -517.48498554 Ry
     estimated scf accuracy    <       0.00004428 Ry

     total magnetization       =     0.74 Bohr mag/cell
     absolute magnetization    =     0.76 Bohr mag/cell

     iteration # 25     ecut=    93.00 Ry     beta= 0.50
     Davidson diagonalization with overlap

---- Real-time Memory Report at c_bands before calling an iterative solver
           105 MiB given to the printing process from OS
             0 MiB allocation reported by mallinfo(arena+hblkhd)
         40651 MiB available memory on the node where the printing process lives
------------------
     c_bands:  2 eigenvalues not converged
     c_bands:  2 eigenvalues not converged
     c_bands:  1 eigenvalues not converged
     c_bands:  2 eigenvalues not converged
     c_bands:  1 eigenvalues not converged
     c_bands:  1 eigenvalues not converged
     c_bands:  1 eigenvalues not converged
     c_bands:  3 eigenvalues not converged
     ethr =  3.03E-08,  avg # of iterations = 12.5

     total cpu time spent up to now is      260.1 secs

     total energy              =    -517.48482216 Ry
     estimated scf accuracy    <       0.00007389 Ry

     total magnetization       =     0.84 Bohr mag/cell
     absolute magnetization    =     0.86 Bohr mag/cell

     iteration # 26     ecut=    93.00 Ry     beta= 0.50
     Davidson diagonalization with overlap

---- Real-time Memory Report at c_bands before calling an iterative solver
           105 MiB given to the printing process from OS
             0 MiB allocation reported by mallinfo(arena+hblkhd)
         40655 MiB available memory on the node where the printing process lives
------------------
     c_bands:  1 eigenvalues not converged
     c_bands:  2 eigenvalues not converged
     c_bands:  4 eigenvalues not converged
     c_bands:  2 eigenvalues not converged
     c_bands:  2 eigenvalues not converged
     c_bands:  1 eigenvalues not converged
     c_bands:  2 eigenvalues not converged
     c_bands:  3 eigenvalues not converged
     c_bands:  1 eigenvalues not converged
     c_bands:  2 eigenvalues not converged
     c_bands:  1 eigenvalues not converged
     c_bands:  2 eigenvalues not converged
     c_bands:  2 eigenvalues not converged
     c_bands:  3 eigenvalues not converged
     c_bands:  1 eigenvalues not converged
     c_bands:  2 eigenvalues not converged
     c_bands:  1 eigenvalues not converged
     c_bands:  3 eigenvalues not converged
     c_bands:  2 eigenvalues not converged
     c_bands:  4 eigenvalues not converged
     c_bands:  3 eigenvalues not converged
     c_bands:  2 eigenvalues not converged
     c_bands:  2 eigenvalues not converged
     ethr =  3.03E-08,  avg # of iterations = 18.6

     total cpu time spent up to now is      275.0 secs

     total energy              =    -517.48511234 Ry
     estimated scf accuracy    <       0.00003715 Ry

     total magnetization       =     0.58 Bohr mag/cell
     absolute magnetization    =     0.59 Bohr mag/cell

     iteration # 27     ecut=    93.00 Ry     beta= 0.50
     Davidson diagonalization with overlap

---- Real-time Memory Report at c_bands before calling an iterative solver
           105 MiB given to the printing process from OS
             0 MiB allocation reported by mallinfo(arena+hblkhd)
         40656 MiB available memory on the node where the printing process lives
------------------
     c_bands:  2 eigenvalues not converged
     c_bands:  2 eigenvalues not converged
     c_bands:  1 eigenvalues not converged
     c_bands:  2 eigenvalues not converged
     c_bands:  1 eigenvalues not converged
     c_bands:  3 eigenvalues not converged
     ethr =  3.03E-08,  avg # of iterations =  5.2

     total cpu time spent up to now is      280.9 secs

     total energy              =    -517.48511509 Ry
     estimated scf accuracy    <       0.00004344 Ry

     total magnetization       =     0.59 Bohr mag/cell
     absolute magnetization    =     0.61 Bohr mag/cell

     iteration # 28     ecut=    93.00 Ry     beta= 0.50
     Davidson diagonalization with overlap

---- Real-time Memory Report at c_bands before calling an iterative solver
           105 MiB given to the printing process from OS
             0 MiB allocation reported by mallinfo(arena+hblkhd)
         40656 MiB available memory on the node where the printing process lives
------------------
     c_bands:  2 eigenvalues not converged
     c_bands:  1 eigenvalues not converged
     c_bands:  1 eigenvalues not converged
     c_bands:  1 eigenvalues not converged
     c_bands:  1 eigenvalues not converged
     c_bands:  3 eigenvalues not converged
     ethr =  3.03E-08,  avg # of iterations =  8.3

     total cpu time spent up to now is      288.1 secs

     total energy              =    -517.48513485 Ry
     estimated scf accuracy    <       0.00001450 Ry

     total magnetization       =     0.53 Bohr mag/cell
     absolute magnetization    =     0.55 Bohr mag/cell

     iteration # 29     ecut=    93.00 Ry     beta= 0.50
     Davidson diagonalization with overlap

---- Real-time Memory Report at c_bands before calling an iterative solver
           105 MiB given to the printing process from OS
             0 MiB allocation reported by mallinfo(arena+hblkhd)
         40658 MiB available memory on the node where the printing process lives
------------------
     c_bands:  2 eigenvalues not converged
     c_bands:  2 eigenvalues not converged
     c_bands:  1 eigenvalues not converged
     c_bands:  1 eigenvalues not converged
     c_bands:  1 eigenvalues not converged
     c_bands:  3 eigenvalues not converged
     ethr =  2.59E-08,  avg # of iterations =  8.8

     total cpu time spent up to now is      294.8 secs

     total energy              =    -517.48481505 Ry
     estimated scf accuracy    <       0.00001444 Ry

     total magnetization       =     0.51 Bohr mag/cell
     absolute magnetization    =     0.53 Bohr mag/cell

     iteration # 30     ecut=    93.00 Ry     beta= 0.50
     Davidson diagonalization with overlap

---- Real-time Memory Report at c_bands before calling an iterative solver
           105 MiB given to the printing process from OS
             0 MiB allocation reported by mallinfo(arena+hblkhd)
         40656 MiB available memory on the node where the printing process lives
------------------
     c_bands:  2 eigenvalues not converged
     c_bands:  2 eigenvalues not converged
     c_bands:  1 eigenvalues not converged
     c_bands:  2 eigenvalues not converged
     c_bands:  2 eigenvalues not converged
     c_bands:  1 eigenvalues not converged
     c_bands:  3 eigenvalues not converged
     c_bands:  1 eigenvalues not converged
     c_bands:  2 eigenvalues not converged
     c_bands:  4 eigenvalues not converged
     c_bands:  1 eigenvalues not converged
     c_bands:  4 eigenvalues not converged
     c_bands:  2 eigenvalues not converged
     c_bands:  1 eigenvalues not converged
     c_bands:  2 eigenvalues not converged
     c_bands:  1 eigenvalues not converged
     c_bands:  2 eigenvalues not converged
     c_bands:  1 eigenvalues not converged
     c_bands:  2 eigenvalues not converged
     c_bands:  3 eigenvalues not converged
     c_bands:  2 eigenvalues not converged
     ethr =  2.58E-08,  avg # of iterations = 19.0

     total cpu time spent up to now is      310.0 secs

     total energy              =    -517.48495266 Ry
     estimated scf accuracy    <       0.00003294 Ry

     total magnetization       =     0.74 Bohr mag/cell
     absolute magnetization    =     0.76 Bohr mag/cell

     iteration # 31     ecut=    93.00 Ry     beta= 0.50
     Davidson diagonalization with overlap

---- Real-time Memory Report at c_bands before calling an iterative solver
           105 MiB given to the printing process from OS
             0 MiB allocation reported by mallinfo(arena+hblkhd)
         40660 MiB available memory on the node where the printing process lives
------------------
     c_bands:  2 eigenvalues not converged
     c_bands:  2 eigenvalues not converged
     c_bands:  1 eigenvalues not converged
     c_bands:  2 eigenvalues not converged
     c_bands:  1 eigenvalues not converged
     c_bands:  2 eigenvalues not converged
     c_bands:  1 eigenvalues not converged
     c_bands:  2 eigenvalues not converged
     c_bands:  1 eigenvalues not converged
     c_bands:  2 eigenvalues not converged
     c_bands:  2 eigenvalues not converged
     c_bands:  2 eigenvalues not converged
     c_bands:  3 eigenvalues not converged
     c_bands:  2 eigenvalues not converged
     c_bands:  1 eigenvalues not converged
     c_bands:  2 eigenvalues not converged
     ethr =  2.58E-08,  avg # of iterations = 16.1

     total cpu time spent up to now is      322.5 secs

     total energy              =    -517.48502361 Ry
     estimated scf accuracy    <       0.00010470 Ry

     total magnetization       =     0.84 Bohr mag/cell
     absolute magnetization    =     0.86 Bohr mag/cell

     iteration # 32     ecut=    93.00 Ry     beta= 0.50
     Davidson diagonalization with overlap

---- Real-time Memory Report at c_bands before calling an iterative solver
           105 MiB given to the printing process from OS
             0 MiB allocation reported by mallinfo(arena+hblkhd)
         40662 MiB available memory on the node where the printing process lives
------------------
     c_bands:  2 eigenvalues not converged
     c_bands:  1 eigenvalues not converged
     c_bands:  2 eigenvalues not converged
     ethr =  2.58E-08,  avg # of iterations =  3.5

     total cpu time spent up to now is      327.8 secs

     total energy              =    -517.48502756 Ry
     estimated scf accuracy    <       0.00011776 Ry

     total magnetization       =     0.81 Bohr mag/cell
     absolute magnetization    =     0.83 Bohr mag/cell

     iteration # 33     ecut=    93.00 Ry     beta= 0.50
     Davidson diagonalization with overlap

---- Real-time Memory Report at c_bands before calling an iterative solver
           106 MiB given to the printing process from OS
             0 MiB allocation reported by mallinfo(arena+hblkhd)
         40663 MiB available memory on the node where the printing process lives
------------------
     c_bands:  2 eigenvalues not converged
     c_bands:  1 eigenvalues not converged
     c_bands:  1 eigenvalues not converged
     c_bands:  1 eigenvalues not converged
     c_bands:  1 eigenvalues not converged
     c_bands:  1 eigenvalues not converged
     c_bands:  1 eigenvalues not converged
     ethr =  2.58E-08,  avg # of iterations = 13.8

     total cpu time spent up to now is      338.4 secs

     total energy              =    -517.48491778 Ry
     estimated scf accuracy    <       0.00009879 Ry

     total magnetization       =     0.73 Bohr mag/cell
     absolute magnetization    =     0.75 Bohr mag/cell

     iteration # 34     ecut=    93.00 Ry     beta= 0.50
     Davidson diagonalization with overlap

---- Real-time Memory Report at c_bands before calling an iterative solver
           106 MiB given to the printing process from OS
             0 MiB allocation reported by mallinfo(arena+hblkhd)
         40641 MiB available memory on the node where the printing process lives
------------------
     c_bands:  2 eigenvalues not converged
     c_bands:  3 eigenvalues not converged
     c_bands:  4 eigenvalues not converged
     c_bands:  2 eigenvalues not converged
     c_bands:  5 eigenvalues not converged
     c_bands:  1 eigenvalues not converged
     c_bands:  3 eigenvalues not converged
     c_bands:  4 eigenvalues not converged
     c_bands:  4 eigenvalues not converged
     c_bands:  4 eigenvalues not converged
     c_bands:  3 eigenvalues not converged
     c_bands:  1 eigenvalues not converged
     c_bands:  2 eigenvalues not converged
     c_bands:  2 eigenvalues not converged
     c_bands:  3 eigenvalues not converged
     c_bands:  4 eigenvalues not converged
     c_bands:  2 eigenvalues not converged
     c_bands:  1 eigenvalues not converged
     c_bands:  2 eigenvalues not converged
     c_bands:  5 eigenvalues not converged
     c_bands:  3 eigenvalues not converged
     c_bands:  4 eigenvalues not converged
     c_bands:  4 eigenvalues not converged
     c_bands:  3 eigenvalues not converged
     ethr =  2.58E-08,  avg # of iterations = 18.8

     total cpu time spent up to now is      354.3 secs

     total energy              =    -517.48509719 Ry
     estimated scf accuracy    <       0.00004110 Ry

     total magnetization       =     0.52 Bohr mag/cell
     absolute magnetization    =     0.54 Bohr mag/cell

     iteration # 35     ecut=    93.00 Ry     beta= 0.50
     Davidson diagonalization with overlap

---- Real-time Memory Report at c_bands before calling an iterative solver
           106 MiB given to the printing process from OS
             0 MiB allocation reported by mallinfo(arena+hblkhd)
         40649 MiB available memory on the node where the printing process lives
------------------
     c_bands:  1 eigenvalues not converged
     ethr =  2.58E-08,  avg # of iterations =  8.7

     total cpu time spent up to now is      361.5 secs

     total energy              =    -517.48499660 Ry
     estimated scf accuracy    <       0.00003699 Ry

     total magnetization       =     0.58 Bohr mag/cell
     absolute magnetization    =     0.59 Bohr mag/cell

     iteration # 36     ecut=    93.00 Ry     beta= 0.50
     Davidson diagonalization with overlap

---- Real-time Memory Report at c_bands before calling an iterative solver
           106 MiB given to the printing process from OS
             0 MiB allocation reported by mallinfo(arena+hblkhd)
         40649 MiB available memory on the node where the printing process lives
------------------
     c_bands:  2 eigenvalues not converged
     c_bands:  3 eigenvalues not converged
     c_bands:  1 eigenvalues not converged
     c_bands:  1 eigenvalues not converged
     c_bands:  2 eigenvalues not converged
     ethr =  2.58E-08,  avg # of iterations = 12.8

     total cpu time spent up to now is      372.8 secs

     total energy              =    -517.48502406 Ry
     estimated scf accuracy    <       0.00002960 Ry

     total magnetization       =     0.72 Bohr mag/cell
     absolute magnetization    =     0.74 Bohr mag/cell

     iteration # 37     ecut=    93.00 Ry     beta= 0.50
     Davidson diagonalization with overlap

---- Real-time Memory Report at c_bands before calling an iterative solver
           106 MiB given to the printing process from OS
             0 MiB allocation reported by mallinfo(arena+hblkhd)
         40652 MiB available memory on the node where the printing process lives
------------------
     c_bands:  2 eigenvalues not converged
     c_bands:  1 eigenvalues not converged
     c_bands:  1 eigenvalues not converged
     c_bands:  1 eigenvalues not converged
     c_bands:  1 eigenvalues not converged
     ethr =  2.58E-08,  avg # of iterations = 12.4

     total cpu time spent up to now is      382.4 secs

     total energy              =    -517.48497876 Ry
     estimated scf accuracy    <       0.00002575 Ry

     total magnetization       =     0.80 Bohr mag/cell
     absolute magnetization    =     0.82 Bohr mag/cell

     iteration # 38     ecut=    93.00 Ry     beta= 0.50
     Davidson diagonalization with overlap

---- Real-time Memory Report at c_bands before calling an iterative solver
           106 MiB given to the printing process from OS
             0 MiB allocation reported by mallinfo(arena+hblkhd)
         40651 MiB available memory on the node where the printing process lives
------------------
     c_bands:  3 eigenvalues not converged
     c_bands:  3 eigenvalues not converged
     c_bands:  2 eigenvalues not converged
     c_bands:  3 eigenvalues not converged
     c_bands:  2 eigenvalues not converged
     c_bands:  1 eigenvalues not converged
     c_bands:  3 eigenvalues not converged
     c_bands:  1 eigenvalues not converged
     c_bands:  4 eigenvalues not converged
     c_bands:  3 eigenvalues not converged
     c_bands:  2 eigenvalues not converged
     c_bands:  2 eigenvalues not converged
     c_bands:  1 eigenvalues not converged
     c_bands:  2 eigenvalues not converged
     c_bands:  4 eigenvalues not converged
     c_bands:  3 eigenvalues not converged
     c_bands:  1 eigenvalues not converged
     c_bands:  2 eigenvalues not converged
     c_bands:  2 eigenvalues not converged
     c_bands:  5 eigenvalues not converged
     c_bands:  3 eigenvalues not converged
     c_bands:  2 eigenvalues not converged
     c_bands:  4 eigenvalues not converged
     c_bands:  3 eigenvalues not converged
     c_bands:  1 eigenvalues not converged
     c_bands:  1 eigenvalues not converged
     ethr =  2.58E-08,  avg # of iterations = 18.8

     total cpu time spent up to now is      397.7 secs

     total energy              =    -517.48498990 Ry
     estimated scf accuracy    <       0.00001730 Ry

     total magnetization       =     0.63 Bohr mag/cell
     absolute magnetization    =     0.65 Bohr mag/cell

     iteration # 39     ecut=    93.00 Ry     beta= 0.50
     Davidson diagonalization with overlap

---- Real-time Memory Report at c_bands before calling an iterative solver
           106 MiB given to the printing process from OS
             0 MiB allocation reported by mallinfo(arena+hblkhd)
         40650 MiB available memory on the node where the printing process lives
------------------
     c_bands:  4 eigenvalues not converged
     c_bands:  2 eigenvalues not converged
     c_bands:  2 eigenvalues not converged
     c_bands:  3 eigenvalues not converged
     c_bands:  2 eigenvalues not converged
     c_bands:  1 eigenvalues not converged
     c_bands:  1 eigenvalues not converged
     c_bands:  1 eigenvalues not converged
     c_bands:  3 eigenvalues not converged
     c_bands:  2 eigenvalues not converged
     c_bands:  1 eigenvalues not converged
     c_bands:  2 eigenvalues not converged
     c_bands:  1 eigenvalues not converged
     c_bands:  1 eigenvalues not converged
     c_bands:  1 eigenvalues not converged
     c_bands:  3 eigenvalues not converged
     c_bands:  1 eigenvalues not converged
     c_bands:  2 eigenvalues not converged
     ethr =  2.58E-08,  avg # of iterations = 17.5

[...]
     c_bands:  2 eigenvalues not converged
     c_bands:  2 eigenvalues not converged
     c_bands:  3 eigenvalues not converged
     c_bands:  3 eigenvalues not converged
     c_bands:  1 eigenvalues not converged
     c_bands:  1 eigenvalues not converged
     c_bands:  2 eigenvalues not converged
     ethr =  5.09E-13,  avg # of iterations = 15.7

     total cpu time spent up to now is     2463.4 secs

     total energy              =    -517.48507357 Ry
     estimated scf accuracy    <       0.00000002 Ry

     total magnetization       =     0.00 Bohr mag/cell
     absolute magnetization    =     0.02 Bohr mag/cell

     iteration # 92     ecut=    93.00 Ry     beta= 0.50
     Davidson diagonalization with overlap

---- Real-time Memory Report at c_bands before calling an iterative solver
           122 MiB given to the printing process from OS
             0 MiB allocation reported by mallinfo(arena+hblkhd)
         40440 MiB available memory on the node where the printing process lives
------------------
     c_bands:  5 eigenvalues not converged
     c_bands:  2 eigenvalues not converged
     c_bands:  4 eigenvalues not converged
     c_bands:  3 eigenvalues not converged
     c_bands:  4 eigenvalues not converged
     c_bands:  2 eigenvalues not converged
     c_bands:  4 eigenvalues not converged
     c_bands:  1 eigenvalues not converged
     c_bands:  3 eigenvalues not converged
     c_bands:  3 eigenvalues not converged
     c_bands:  5 eigenvalues not converged
     c_bands:  2 eigenvalues not converged
     c_bands:  2 eigenvalues not converged
     c_bands:  4 eigenvalues not converged
     c_bands:  2 eigenvalues not converged
     c_bands:  5 eigenvalues not converged
     c_bands:  2 eigenvalues not converged
     c_bands:  5 eigenvalues not converged
     c_bands:  3 eigenvalues not converged
     c_bands:  2 eigenvalues not converged
     c_bands:  3 eigenvalues not converged
     c_bands:  2 eigenvalues not converged
     c_bands:  3 eigenvalues not converged
     c_bands:  5 eigenvalues not converged
     c_bands:  5 eigenvalues not converged
     ethr =  5.09E-13,  avg # of iterations = 30.5

     total cpu time spent up to now is     2489.3 secs

     total energy              =    -517.48507360 Ry
     estimated scf accuracy    <          6.9E-09 Ry

     total magnetization       =     0.00 Bohr mag/cell
     absolute magnetization    =     0.02 Bohr mag/cell

     iteration # 93     ecut=    93.00 Ry     beta= 0.50
     Davidson diagonalization with overlap

---- Real-time Memory Report at c_bands before calling an iterative solver
           122 MiB given to the printing process from OS
             0 MiB allocation reported by mallinfo(arena+hblkhd)
         40440 MiB available memory on the node where the printing process lives
------------------
     c_bands:  2 eigenvalues not converged
     c_bands:  4 eigenvalues not converged
     c_bands:  4 eigenvalues not converged
     c_bands:  2 eigenvalues not converged
     c_bands:  2 eigenvalues not converged
     c_bands:  3 eigenvalues not converged
     c_bands:  5 eigenvalues not converged
     c_bands:  2 eigenvalues not converged
     c_bands:  5 eigenvalues not converged
     c_bands:  1 eigenvalues not converged
     c_bands:  1 eigenvalues not converged
     c_bands:  1 eigenvalues not converged
     c_bands:  4 eigenvalues not converged
     c_bands:  3 eigenvalues not converged
     c_bands:  5 eigenvalues not converged
     c_bands:  5 eigenvalues not converged
     c_bands:  3 eigenvalues not converged
     c_bands:  3 eigenvalues not converged
     c_bands:  2 eigenvalues not converged
     c_bands:  5 eigenvalues not converged
     c_bands:  5 eigenvalues not converged
     c_bands:  3 eigenvalues not converged
     c_bands:  2 eigenvalues not converged
     c_bands:  4 eigenvalues not converged
     c_bands:  2 eigenvalues not converged
     c_bands:  1 eigenvalues not converged
     c_bands:  5 eigenvalues not converged
     c_bands:  3 eigenvalues not converged
     c_bands:  5 eigenvalues not converged
     ethr =  5.09E-13,  avg # of iterations = 30.6

     total cpu time spent up to now is     2516.0 secs

     total energy              =    -517.48507364 Ry
     estimated scf accuracy    <       0.00000001 Ry

     total magnetization       =     0.00 Bohr mag/cell
     absolute magnetization    =     0.02 Bohr mag/cell

     iteration # 94     ecut=    93.00 Ry     beta= 0.50
     Davidson diagonalization with overlap

---- Real-time Memory Report at c_bands before calling an iterative solver
           122 MiB given to the printing process from OS
             0 MiB allocation reported by mallinfo(arena+hblkhd)
         40436 MiB available memory on the node where the printing process lives
------------------
     c_bands:  3 eigenvalues not converged
     c_bands:  2 eigenvalues not converged
     c_bands:  1 eigenvalues not converged
     c_bands:  2 eigenvalues not converged
     c_bands:  3 eigenvalues not converged
     c_bands:  3 eigenvalues not converged
     c_bands:  1 eigenvalues not converged
     c_bands:  1 eigenvalues not converged
     c_bands:  4 eigenvalues not converged
     c_bands:  1 eigenvalues not converged
     c_bands:  2 eigenvalues not converged
     c_bands:  2 eigenvalues not converged
     c_bands:  3 eigenvalues not converged
     c_bands:  2 eigenvalues not converged
     c_bands:  1 eigenvalues not converged
     c_bands:  1 eigenvalues not converged
     c_bands:  2 eigenvalues not converged
     c_bands:  2 eigenvalues not converged
     ethr =  5.09E-13,  avg # of iterations = 17.8

     total cpu time spent up to now is     2530.4 secs

     total energy              =    -517.48507364 Ry
     estimated scf accuracy    <       0.00000001 Ry

     total magnetization       =     0.00 Bohr mag/cell
     absolute magnetization    =     0.02 Bohr mag/cell

     iteration # 95     ecut=    93.00 Ry     beta= 0.50
     Davidson diagonalization with overlap

---- Real-time Memory Report at c_bands before calling an iterative solver
           122 MiB given to the printing process from OS
             0 MiB allocation reported by mallinfo(arena+hblkhd)
         40435 MiB available memory on the node where the printing process lives
------------------
     c_bands:  2 eigenvalues not converged
     c_bands:  1 eigenvalues not converged
     c_bands:  2 eigenvalues not converged
     c_bands:  1 eigenvalues not converged
     c_bands:  1 eigenvalues not converged
     c_bands:  2 eigenvalues not converged
     c_bands:  1 eigenvalues not converged
     c_bands:  2 eigenvalues not converged
     c_bands:  4 eigenvalues not converged
     c_bands:  1 eigenvalues not converged
     c_bands:  2 eigenvalues not converged
     c_bands:  1 eigenvalues not converged
     c_bands:  2 eigenvalues not converged
     c_bands:  1 eigenvalues not converged
     ethr =  5.09E-13,  avg # of iterations = 16.8

     total cpu time spent up to now is     2542.9 secs

     total energy              =    -517.48507360 Ry
     estimated scf accuracy    <       0.00000002 Ry

     total magnetization       =     0.00 Bohr mag/cell
     absolute magnetization    =     0.02 Bohr mag/cell

     iteration # 96     ecut=    93.00 Ry     beta= 0.50
     Davidson diagonalization with overlap

---- Real-time Memory Report at c_bands before calling an iterative solver
           122 MiB given to the printing process from OS
             0 MiB allocation reported by mallinfo(arena+hblkhd)
         40440 MiB available memory on the node where the printing process lives
------------------
     c_bands:  4 eigenvalues not converged
     c_bands:  4 eigenvalues not converged
     c_bands:  4 eigenvalues not converged
     c_bands:  1 eigenvalues not converged
     c_bands:  4 eigenvalues not converged
     c_bands:  3 eigenvalues not converged
     c_bands:  4 eigenvalues not converged
     c_bands:  2 eigenvalues not converged
     c_bands:  4 eigenvalues not converged
     c_bands:  1 eigenvalues not converged
     c_bands:  1 eigenvalues not converged
     c_bands:  3 eigenvalues not converged
     c_bands:  5 eigenvalues not converged
     c_bands:  5 eigenvalues not converged
     c_bands:  1 eigenvalues not converged
     c_bands:  4 eigenvalues not converged
     c_bands:  4 eigenvalues not converged
     c_bands:  5 eigenvalues not converged
     c_bands:  4 eigenvalues not converged
     c_bands:  5 eigenvalues not converged
     c_bands:  3 eigenvalues not converged
     c_bands:  3 eigenvalues not converged
     c_bands:  2 eigenvalues not converged
     c_bands:  5 eigenvalues not converged
     c_bands:  1 eigenvalues not converged
     c_bands:  1 eigenvalues not converged
     c_bands:  1 eigenvalues not converged
     c_bands:  3 eigenvalues not converged
     ethr =  5.09E-13,  avg # of iterations = 30.6

     total cpu time spent up to now is     2569.4 secs

     total energy              =    -517.48507348 Ry
     estimated scf accuracy    <          9.7E-09 Ry

     total magnetization       =     0.00 Bohr mag/cell
     absolute magnetization    =     0.02 Bohr mag/cell

     iteration # 97     ecut=    93.00 Ry     beta= 0.50
     Davidson diagonalization with overlap

---- Real-time Memory Report at c_bands before calling an iterative solver
           122 MiB given to the printing process from OS
             0 MiB allocation reported by mallinfo(arena+hblkhd)
         40442 MiB available memory on the node where the printing process lives
------------------
     c_bands:  4 eigenvalues not converged
     c_bands:  4 eigenvalues not converged
     c_bands:  5 eigenvalues not converged
     c_bands:  2 eigenvalues not converged
     c_bands:  4 eigenvalues not converged
     c_bands:  4 eigenvalues not converged
     c_bands:  5 eigenvalues not converged
     c_bands:  4 eigenvalues not converged
     c_bands:  2 eigenvalues not converged
     c_bands:  3 eigenvalues not converged
     c_bands:  2 eigenvalues not converged
     c_bands:  2 eigenvalues not converged
     c_bands:  4 eigenvalues not converged
     c_bands:  3 eigenvalues not converged
     c_bands:  3 eigenvalues not converged
     c_bands:  4 eigenvalues not converged
     c_bands:  4 eigenvalues not converged
     c_bands:  2 eigenvalues not converged
     c_bands:  4 eigenvalues not converged
     c_bands:  5 eigenvalues not converged
     c_bands:  1 eigenvalues not converged
     c_bands:  5 eigenvalues not converged
     c_bands:  2 eigenvalues not converged
     c_bands:  3 eigenvalues not converged
     c_bands:  2 eigenvalues not converged
     c_bands:  1 eigenvalues not converged
     c_bands:  4 eigenvalues not converged
     c_bands:  3 eigenvalues not converged
     c_bands:  2 eigenvalues not converged
     c_bands:  3 eigenvalues not converged
     ethr =  5.09E-13,  avg # of iterations = 35.0

     total cpu time spent up to now is     2600.8 secs

     total energy              =    -517.48507362 Ry
     estimated scf accuracy    <          3.3E-09 Ry

     total magnetization       =    -0.00 Bohr mag/cell
     absolute magnetization    =     0.01 Bohr mag/cell

     iteration # 98     ecut=    93.00 Ry     beta= 0.50
     Davidson diagonalization with overlap

---- Real-time Memory Report at c_bands before calling an iterative solver
           122 MiB given to the printing process from OS
             0 MiB allocation reported by mallinfo(arena+hblkhd)
         40438 MiB available memory on the node where the printing process lives
------------------
     c_bands:  3 eigenvalues not converged
     c_bands:  4 eigenvalues not converged
     c_bands:  2 eigenvalues not converged
     c_bands:  2 eigenvalues not converged
     c_bands:  5 eigenvalues not converged
     c_bands:  1 eigenvalues not converged
     c_bands:  4 eigenvalues not converged
     c_bands:  4 eigenvalues not converged
     c_bands:  3 eigenvalues not converged
     c_bands:  2 eigenvalues not converged
     c_bands:  4 eigenvalues not converged
     c_bands:  5 eigenvalues not converged
     c_bands:  2 eigenvalues not converged
     c_bands:  4 eigenvalues not converged
     c_bands:  2 eigenvalues not converged
     c_bands:  2 eigenvalues not converged
     c_bands:  5 eigenvalues not converged
     c_bands:  1 eigenvalues not converged
     c_bands:  5 eigenvalues not converged
     c_bands:  5 eigenvalues not converged
     c_bands:  3 eigenvalues not converged
     c_bands:  1 eigenvalues not converged
     c_bands:  4 eigenvalues not converged
     c_bands:  4 eigenvalues not converged
     ethr =  5.09E-13,  avg # of iterations = 18.5

     total cpu time spent up to now is     2616.2 secs

     total energy              =    -517.48507362 Ry
     estimated scf accuracy    <          2.7E-09 Ry

     total magnetization       =    -0.00 Bohr mag/cell
     absolute magnetization    =     0.01 Bohr mag/cell

     iteration # 99     ecut=    93.00 Ry     beta= 0.50
     Davidson diagonalization with overlap

---- Real-time Memory Report at c_bands before calling an iterative solver
           122 MiB given to the printing process from OS
             0 MiB allocation reported by mallinfo(arena+hblkhd)
         40442 MiB available memory on the node where the printing process lives
------------------
     c_bands:  2 eigenvalues not converged
     c_bands:  4 eigenvalues not converged
     c_bands:  2 eigenvalues not converged
     c_bands:  5 eigenvalues not converged
     c_bands:  4 eigenvalues not converged
     c_bands:  1 eigenvalues not converged
     c_bands:  5 eigenvalues not converged
     c_bands:  5 eigenvalues not converged
     c_bands:  4 eigenvalues not converged
     c_bands:  2 eigenvalues not converged
     c_bands:  4 eigenvalues not converged
     c_bands:  4 eigenvalues not converged
     c_bands:  5 eigenvalues not converged
     c_bands:  5 eigenvalues not converged
     c_bands:  1 eigenvalues not converged
     c_bands:  1 eigenvalues not converged
     c_bands:  3 eigenvalues not converged
     c_bands:  2 eigenvalues not converged
     c_bands:  2 eigenvalues not converged
     c_bands:  5 eigenvalues not converged
     c_bands:  4 eigenvalues not converged
     c_bands:  1 eigenvalues not converged
     c_bands:  5 eigenvalues not converged
     c_bands:  2 eigenvalues not converged
     c_bands:  4 eigenvalues not converged
     c_bands:  2 eigenvalues not converged
     c_bands:  4 eigenvalues not converged
     c_bands:  4 eigenvalues not converged
     c_bands:  5 eigenvalues not converged
     c_bands:  5 eigenvalues not converged
     c_bands:  4 eigenvalues not converged
     c_bands:  1 eigenvalues not converged
     ethr =  5.09E-13,  avg # of iterations = 19.6

     total cpu time spent up to now is     2633.1 secs

     total energy              =    -517.48507363 Ry
     estimated scf accuracy    <          2.1E-09 Ry

     total magnetization       =    -0.00 Bohr mag/cell
     absolute magnetization    =     0.01 Bohr mag/cell

     iteration #100     ecut=    93.00 Ry     beta= 0.50
     Davidson diagonalization with overlap

---- Real-time Memory Report at c_bands before calling an iterative solver
           122 MiB given to the printing process from OS
             0 MiB allocation reported by mallinfo(arena+hblkhd)
         40430 MiB available memory on the node where the printing process lives
------------------
     c_bands:  2 eigenvalues not converged
     c_bands:  1 eigenvalues not converged
     c_bands:  2 eigenvalues not converged
     c_bands:  3 eigenvalues not converged
     c_bands:  1 eigenvalues not converged
     c_bands:  1 eigenvalues not converged
     c_bands:  1 eigenvalues not converged
     c_bands:  2 eigenvalues not converged
     c_bands:  2 eigenvalues not converged
     c_bands:  2 eigenvalues not converged
     c_bands:  2 eigenvalues not converged
     c_bands:  2 eigenvalues not converged
     c_bands:  1 eigenvalues not converged
     ethr =  5.09E-13,  avg # of iterations = 16.0

     total cpu time spent up to now is     2645.3 secs

     total energy              =    -517.48507362 Ry
     estimated scf accuracy    <          2.3E-09 Ry

     total magnetization       =    -0.00 Bohr mag/cell
     absolute magnetization    =     0.01 Bohr mag/cell

     End of self-consistent calculation

     convergence NOT achieved after 100 iterations: stopping

     Writing output data file ./Uranium.save/

     init_run     :      3.46s CPU      3.59s WALL (       1 calls)
     electrons    :   2566.99s CPU   2624.63s WALL (       3 calls)
     update_pot   :      2.78s CPU      2.80s WALL (       2 calls)
     forces       :      4.27s CPU      4.44s WALL (       2 calls)
     stress       :      9.35s CPU      9.69s WALL (       2 calls)

     Called by init_run:
     wfcinit      :      1.50s CPU      1.52s WALL (       1 calls)
     wfcinit:wfcr :      1.41s CPU      1.43s WALL (      40 calls)
     potinit      :      0.45s CPU      0.46s WALL (       1 calls)
     hinit0       :      1.02s CPU      1.04s WALL (       1 calls)

     Called by electrons:
     c_bands      :   2282.48s CPU   2311.49s WALL (     219 calls)
     sum_band     :    204.00s CPU    218.85s WALL (     219 calls)
     v_of_rho     :     16.65s CPU     16.75s WALL (     222 calls)
     v_h          :      0.41s CPU      0.41s WALL (     222 calls)
     v_xc         :     16.54s CPU     16.63s WALL (     226 calls)
     newd         :     61.73s CPU     74.03s WALL (     222 calls)
     mix_rho      :      1.94s CPU      2.01s WALL (     219 calls)

     Called by c_bands:
     init_us_2    :      9.48s CPU      9.76s WALL (   17720 calls)
     cegterg      :   2235.55s CPU   2263.93s WALL (    9393 calls)

     Called by sum_band:
     sum_band:wei :      0.97s CPU      0.98s WALL (     219 calls)
     sum_band:loo :    116.54s CPU    118.58s WALL (     219 calls)
     sum_band:buf :      0.42s CPU      0.43s WALL (    8760 calls)
     sum_band:ini :      4.37s CPU      4.42s WALL (    8760 calls)
     sum_band:cal :     35.99s CPU     36.31s WALL (    8760 calls)
     sum_band:bec :      5.86s CPU      5.91s WALL (    8760 calls)
     addusdens    :     81.74s CPU     94.19s WALL (     219 calls)
     addusd:skk   :      0.05s CPU      0.05s WALL (     219 calls)
     addusd:dgemm :     22.41s CPU     31.95s WALL (     438 calls)
     addusd:qvan2 :     54.77s CPU     55.04s WALL (     438 calls)

     Called by *egterg:
     cdiaghg      :    459.17s CPU    461.63s WALL (  130205 calls)
     cegterg:over :    154.83s CPU    156.96s WALL (  120892 calls)
     cegterg:upda :     53.23s CPU     53.62s WALL (  120892 calls)
     cegterg:last :    192.56s CPU    193.36s WALL (   41476 calls)
     h_psi        :   1128.45s CPU   1149.25s WALL (  130325 calls)
     s_psi        :    189.64s CPU    190.95s WALL (  130325 calls)
     g_psi        :      3.31s CPU      3.35s WALL (  120892 calls)

     Called by h_psi:
     h_psi:calbec :    195.24s CPU    197.86s WALL (  130325 calls)
     vloc_psi     :    740.67s CPU    757.75s WALL (  130325 calls)
     add_vuspsi   :    190.20s CPU    191.36s WALL (  130325 calls)

     General routines
     calbec       :    232.44s CPU    235.50s WALL (  139485 calls)
     fft          :      7.53s CPU      7.60s WALL (    5626 calls)
     ffts         :      0.39s CPU      0.40s WALL (     882 calls)
     fftw         :    768.22s CPU    785.96s WALL ( 3122298 calls)
     interpolate  :      0.83s CPU      0.84s WALL (     444 calls)
     davcio       :      0.00s CPU      0.01s WALL (      58 calls)

     Parallel routines

     PWSCF        :  43m 8.19s CPU  44m 7.29s WALL


   This run was terminated on:  14:54:29   5Dec2021            

=------------------------------------------------------------------------------=
   JOB DONE.
=------------------------------------------------------------------------------=
