
     Program PWSCF v.6.8 starts on  5Dec2021 at 19:38:14 

     This program is part of the open-source Quantum ESPRESSO suite
     for quantum simulation of materials; please cite
         "P. Giannozzi et al., J. Phys.:Condens. Matter 21 395502 (2009);
         "P. Giannozzi et al., J. Phys.:Condens. Matter 29 465901 (2017);
         "P. Giannozzi et al., J. Chem. Phys. 152 154105 (2020);
          URL http://www.quantum-espresso.org", 
     in publications or presentations arising from this work. More details at
     http://www.quantum-espresso.org/quote

     Parallel version (MPI), running on    32 processors

     MPI processes distributed on     1 nodes
     R & G space division:  proc/nbgrp/npool/nimage =      32
     10800 MiB available memory on the printing compute node when the environment starts

     Reading input from run4.in
Warning: card &CELL ignored
Warning: card    CELL_DYNAMICS = 'BFGS' , ignored
Warning: card    CELL_DOFREE = 'ALL', ignored
Warning: card    PRESS_CONV_THR = 0.5 , ! THIS IS THE DEFAULT ignored
Warning: card  / ignored

     Current dimensions of program PWSCF are:
     Max number of different atomic species (ntypx) = 10
     Max number of k-points (npk) =  40000
     Max angular momentum in pseudopotentials (lmaxx) =  4
     file U.pbe-spfn-rrkjus_psl.1.0.0.UPF: wavefunction(s)  5F renormalized
     Found symmetry operation: I + ( -0.5000  0.5000  0.0000)
     This is a supercell, fractional translations are disabled
     Message from routine setup:
     using ibrav=0 with symmetry is DISCOURAGED, use correct ibrav instead

     Subspace diagonalization in iterative solution of the eigenvalue problem:
     a serial algorithm will be used


     Parallelization info
     --------------------
     sticks:   dense  smooth     PW     G-vecs:    dense   smooth      PW
     Min         130      65     18                 6294     2226     336
     Max         131      67     19                 6298     2231     341
     Sum        4165    2085    593               201485    71327   10827

     Using Slab Decomposition



     bravais-lattice index     =            0
     lattice parameter (alat)  =       8.3778  a.u.
     unit-cell volume          =     588.0141 (a.u.)^3
     number of atoms/cell      =            4
     number of atomic types    =            1
     number of electrons       =        56.00
     number of Kohn-Sham states=           32
     kinetic-energy cutoff     =      93.0000  Ry
     charge density cutoff     =     744.0000  Ry
     scf convergence threshold =      1.0E-08
     mixing beta               =       0.5000
     number of iterations used =            8  plain     mixing
     Exchange-correlation= PBE
                           (   1   4   3   4   0   0   0)

     celldm(1)=   8.377785  celldm(2)=   0.000000  celldm(3)=   0.000000
     celldm(4)=   0.000000  celldm(5)=   0.000000  celldm(6)=   0.000000

     crystal axes: (cart. coord. in units of alat)
               a(1) = (   1.000000   0.000000   0.000000 )  
               a(2) = (   0.000000   1.000000   0.000000 )  
               a(3) = (   0.000000   0.000000   1.000000 )  

     reciprocal axes: (cart. coord. in units 2 pi/alat)
               b(1) = (  1.000000  0.000000  0.000000 )  
               b(2) = (  0.000000  1.000000  0.000000 )  
               b(3) = (  0.000000  0.000000  1.000000 )  


     PseudoPot. # 1 for U  read from file:
     /home/myhawary/QE/runs/pseudo/U.pbe-spfn-rrkjus_psl.1.0.0.UPF
     MD5 check sum: b50a7459bb2a1ad67e79ea3a31ec714c
     Pseudo is Ultrasoft + core correction, Zval = 14.0
     Generated using &quot;atomic&quot; code by A. Dal Corso  v.6.2.2
     Using radial grid of 1291 points,  8 beta functions with: 
                l(1) =   0
                l(2) =   0
                l(3) =   1
                l(4) =   1
                l(5) =   2
                l(6) =   2
                l(7) =   3
                l(8) =   3
     Q(r) pseudized with 0 coefficients 


     atomic species   valence    mass     pseudopotential
        U             14.00   238.00000     U ( 1.00)

     Starting magnetic structure 
     atomic species   magnetization
        U            0.100

     48 Sym. Ops., with inversion, found


                                    s                        frac. trans.

      isym =  1     identity                                     

 cryst.   s( 1) = (     1          0          0      )
                  (     0          1          0      )
                  (     0          0          1      )

 cart.    s( 1) = (  1.0000000  0.0000000  0.0000000 )
                  (  0.0000000  1.0000000  0.0000000 )
                  (  0.0000000  0.0000000  1.0000000 )


      isym =  2     180 deg rotation - cart. axis [0,0,1]        

 cryst.   s( 2) = (    -1          0          0      )
                  (     0         -1          0      )
                  (     0          0          1      )

 cart.    s( 2) = ( -1.0000000  0.0000000  0.0000000 )
                  (  0.0000000 -1.0000000  0.0000000 )
                  (  0.0000000  0.0000000  1.0000000 )


      isym =  3     180 deg rotation - cart. axis [0,1,0]        

 cryst.   s( 3) = (    -1          0          0      )
                  (     0          1          0      )
                  (     0          0         -1      )

 cart.    s( 3) = ( -1.0000000  0.0000000  0.0000000 )
                  (  0.0000000  1.0000000  0.0000000 )
                  (  0.0000000  0.0000000 -1.0000000 )


      isym =  4     180 deg rotation - cart. axis [1,0,0]        

 cryst.   s( 4) = (     1          0          0      )
                  (     0         -1          0      )
                  (     0          0         -1      )

 cart.    s( 4) = (  1.0000000  0.0000000  0.0000000 )
                  (  0.0000000 -1.0000000  0.0000000 )
                  (  0.0000000  0.0000000 -1.0000000 )


      isym =  5     180 deg rotation - cart. axis [1,1,0]        

 cryst.   s( 5) = (     0          1          0      )
                  (     1          0          0      )
                  (     0          0         -1      )

 cart.    s( 5) = (  0.0000000  0.9999999  0.0000000 )
                  (  1.0000001  0.0000000  0.0000000 )
                  (  0.0000000  0.0000000 -1.0000000 )


      isym =  6     180 deg rotation - cart. axis [1,-1,0]       

 cryst.   s( 6) = (     0         -1          0      )
                  (    -1          0          0      )
                  (     0          0         -1      )

 cart.    s( 6) = (  0.0000000 -0.9999999  0.0000000 )
                  ( -1.0000001  0.0000000  0.0000000 )
                  (  0.0000000  0.0000000 -1.0000000 )


      isym =  7      90 deg rotation - cart. axis [0,0,-1]       

 cryst.   s( 7) = (     0         -1          0      )
                  (     1          0          0      )
                  (     0          0          1      )

 cart.    s( 7) = (  0.0000000  0.9999999  0.0000000 )
                  ( -1.0000001  0.0000000  0.0000000 )
                  (  0.0000000  0.0000000  1.0000000 )


      isym =  8      90 deg rotation - cart. axis [0,0,1]        

 cryst.   s( 8) = (     0          1          0      )
                  (    -1          0          0      )
                  (     0          0          1      )

 cart.    s( 8) = (  0.0000000 -0.9999999  0.0000000 )
                  (  1.0000001  0.0000000  0.0000000 )
                  (  0.0000000  0.0000000  1.0000000 )


      isym =  9     180 deg rotation - cart. axis [1,0,1]        

 cryst.   s( 9) = (     0          0          1      )
                  (     0         -1          0      )
                  (     1          0          0      )

 cart.    s( 9) = (  0.0000000  0.0000000  0.9999999 )
                  (  0.0000000 -1.0000000  0.0000000 )
                  (  1.0000001  0.0000000  0.0000000 )


      isym = 10     180 deg rotation - cart. axis [-1,0,1]       

 cryst.   s(10) = (     0          0         -1      )
                  (     0         -1          0      )
                  (    -1          0          0      )

 cart.    s(10) = (  0.0000000  0.0000000 -0.9999999 )
                  (  0.0000000 -1.0000000  0.0000000 )
                  ( -1.0000001  0.0000000  0.0000000 )


      isym = 11      90 deg rotation - cart. axis [0,1,0]        

 cryst.   s(11) = (     0          0         -1      )
                  (     0          1          0      )
                  (     1          0          0      )

 cart.    s(11) = (  0.0000000  0.0000000  0.9999999 )
                  (  0.0000000  1.0000000  0.0000000 )
                  ( -1.0000001  0.0000000  0.0000000 )


      isym = 12      90 deg rotation - cart. axis [0,-1,0]       

 cryst.   s(12) = (     0          0          1      )
                  (     0          1          0      )
                  (    -1          0          0      )

 cart.    s(12) = (  0.0000000  0.0000000 -0.9999999 )
                  (  0.0000000  1.0000000  0.0000000 )
                  (  1.0000001  0.0000000  0.0000000 )


      isym = 13     180 deg rotation - cart. axis [0,1,1]        

 cryst.   s(13) = (    -1          0          0      )
                  (     0          0          1      )
                  (     0          1          0      )

 cart.    s(13) = ( -1.0000000  0.0000000  0.0000000 )
                  (  0.0000000  0.0000000  1.0000000 )
                  (  0.0000000  1.0000000  0.0000000 )


      isym = 14     180 deg rotation - cart. axis [0,1,-1]       

 cryst.   s(14) = (    -1          0          0      )
                  (     0          0         -1      )
                  (     0         -1          0      )

 cart.    s(14) = ( -1.0000000  0.0000000  0.0000000 )
                  (  0.0000000  0.0000000 -1.0000000 )
                  (  0.0000000 -1.0000000  0.0000000 )


      isym = 15      90 deg rotation - cart. axis [-1,0,0]       

 cryst.   s(15) = (     1          0          0      )
                  (     0          0         -1      )
                  (     0          1          0      )

 cart.    s(15) = (  1.0000000  0.0000000  0.0000000 )
                  (  0.0000000  0.0000000  1.0000000 )
                  (  0.0000000 -1.0000000  0.0000000 )


      isym = 16      90 deg rotation - cart. axis [1,0,0]        

 cryst.   s(16) = (     1          0          0      )
                  (     0          0          1      )
                  (     0         -1          0      )

 cart.    s(16) = (  1.0000000  0.0000000  0.0000000 )
                  (  0.0000000  0.0000000 -1.0000000 )
                  (  0.0000000  1.0000000  0.0000000 )


      isym = 17     120 deg rotation - cart. axis [-1,-1,-1]     

 cryst.   s(17) = (     0          0          1      )
                  (     1          0          0      )
                  (     0          1          0      )

 cart.    s(17) = (  0.0000000  0.9999999  0.0000000 )
                  (  0.0000000  0.0000000  1.0000000 )
                  (  1.0000001  0.0000000  0.0000000 )


      isym = 18     120 deg rotation - cart. axis [-1,1,1]       

 cryst.   s(18) = (     0          0         -1      )
                  (    -1          0          0      )
                  (     0          1          0      )

 cart.    s(18) = (  0.0000000 -0.9999999  0.0000000 )
                  (  0.0000000  0.0000000  1.0000000 )
                  ( -1.0000001  0.0000000  0.0000000 )


      isym = 19     120 deg rotation - cart. axis [1,1,-1]       

 cryst.   s(19) = (     0          0         -1      )
                  (     1          0          0      )
                  (     0         -1          0      )

 cart.    s(19) = (  0.0000000  0.9999999  0.0000000 )
                  (  0.0000000  0.0000000 -1.0000000 )
                  ( -1.0000001  0.0000000  0.0000000 )


      isym = 20     120 deg rotation - cart. axis [1,-1,1]       

 cryst.   s(20) = (     0          0          1      )
                  (    -1          0          0      )
                  (     0         -1          0      )

 cart.    s(20) = (  0.0000000 -0.9999999  0.0000000 )
                  (  0.0000000  0.0000000 -1.0000000 )
                  (  1.0000001  0.0000000  0.0000000 )


      isym = 21     120 deg rotation - cart. axis [1,1,1]        

 cryst.   s(21) = (     0          1          0      )
                  (     0          0          1      )
                  (     1          0          0      )

 cart.    s(21) = (  0.0000000  0.0000000  0.9999999 )
                  (  1.0000001  0.0000000  0.0000000 )
                  (  0.0000000  1.0000000  0.0000000 )


      isym = 22     120 deg rotation - cart. axis [-1,1,-1]      

 cryst.   s(22) = (     0         -1          0      )
                  (     0          0         -1      )
                  (     1          0          0      )

 cart.    s(22) = (  0.0000000  0.0000000  0.9999999 )
                  ( -1.0000001  0.0000000  0.0000000 )
                  (  0.0000000 -1.0000000  0.0000000 )


      isym = 23     120 deg rotation - cart. axis [1,-1,-1]      

 cryst.   s(23) = (     0         -1          0      )
                  (     0          0          1      )
                  (    -1          0          0      )

 cart.    s(23) = (  0.0000000  0.0000000 -0.9999999 )
                  ( -1.0000001  0.0000000  0.0000000 )
                  (  0.0000000  1.0000000  0.0000000 )


      isym = 24     120 deg rotation - cart. axis [-1,-1,1]      

 cryst.   s(24) = (     0          1          0      )
                  (     0          0         -1      )
                  (    -1          0          0      )

 cart.    s(24) = (  0.0000000  0.0000000 -0.9999999 )
                  (  1.0000001  0.0000000  0.0000000 )
                  (  0.0000000 -1.0000000  0.0000000 )


      isym = 25     inversion                                    

 cryst.   s(25) = (    -1          0          0      )
                  (     0         -1          0      )
                  (     0          0         -1      )

 cart.    s(25) = ( -1.0000000  0.0000000  0.0000000 )
                  (  0.0000000 -1.0000000  0.0000000 )
                  (  0.0000000  0.0000000 -1.0000000 )


      isym = 26     inv. 180 deg rotation - cart. axis [0,0,1]   

 cryst.   s(26) = (     1          0          0      )
                  (     0          1          0      )
                  (     0          0         -1      )

 cart.    s(26) = (  1.0000000  0.0000000  0.0000000 )
                  (  0.0000000  1.0000000  0.0000000 )
                  (  0.0000000  0.0000000 -1.0000000 )


      isym = 27     inv. 180 deg rotation - cart. axis [0,1,0]   

 cryst.   s(27) = (     1          0          0      )
                  (     0         -1          0      )
                  (     0          0          1      )

 cart.    s(27) = (  1.0000000  0.0000000  0.0000000 )
                  (  0.0000000 -1.0000000  0.0000000 )
                  (  0.0000000  0.0000000  1.0000000 )


      isym = 28     inv. 180 deg rotation - cart. axis [1,0,0]   

 cryst.   s(28) = (    -1          0          0      )
                  (     0          1          0      )
                  (     0          0          1      )

 cart.    s(28) = ( -1.0000000  0.0000000  0.0000000 )
                  (  0.0000000  1.0000000  0.0000000 )
                  (  0.0000000  0.0000000  1.0000000 )


      isym = 29     inv. 180 deg rotation - cart. axis [1,1,0]   

 cryst.   s(29) = (     0         -1          0      )
                  (    -1          0          0      )
                  (     0          0          1      )

 cart.    s(29) = (  0.0000000 -0.9999999  0.0000000 )
                  ( -1.0000001  0.0000000  0.0000000 )
                  (  0.0000000  0.0000000  1.0000000 )


      isym = 30     inv. 180 deg rotation - cart. axis [1,-1,0]  

 cryst.   s(30) = (     0          1          0      )
                  (     1          0          0      )
                  (     0          0          1      )

 cart.    s(30) = (  0.0000000  0.9999999  0.0000000 )
                  (  1.0000001  0.0000000  0.0000000 )
                  (  0.0000000  0.0000000  1.0000000 )


      isym = 31     inv.  90 deg rotation - cart. axis [0,0,-1]  

 cryst.   s(31) = (     0          1          0      )
                  (    -1          0          0      )
                  (     0          0         -1      )

 cart.    s(31) = (  0.0000000 -0.9999999  0.0000000 )
                  (  1.0000001  0.0000000  0.0000000 )
                  (  0.0000000  0.0000000 -1.0000000 )


      isym = 32     inv.  90 deg rotation - cart. axis [0,0,1]   

 cryst.   s(32) = (     0         -1          0      )
                  (     1          0          0      )
                  (     0          0         -1      )

 cart.    s(32) = (  0.0000000  0.9999999  0.0000000 )
                  ( -1.0000001  0.0000000  0.0000000 )
                  (  0.0000000  0.0000000 -1.0000000 )


      isym = 33     inv. 180 deg rotation - cart. axis [1,0,1]   

 cryst.   s(33) = (     0          0         -1      )
                  (     0          1          0      )
                  (    -1          0          0      )

 cart.    s(33) = (  0.0000000  0.0000000 -0.9999999 )
                  (  0.0000000  1.0000000  0.0000000 )
                  ( -1.0000001  0.0000000  0.0000000 )


      isym = 34     inv. 180 deg rotation - cart. axis [-1,0,1]  

 cryst.   s(34) = (     0          0          1      )
                  (     0          1          0      )
                  (     1          0          0      )

 cart.    s(34) = (  0.0000000  0.0000000  0.9999999 )
                  (  0.0000000  1.0000000  0.0000000 )
                  (  1.0000001  0.0000000  0.0000000 )


      isym = 35     inv.  90 deg rotation - cart. axis [0,1,0]   

 cryst.   s(35) = (     0          0          1      )
                  (     0         -1          0      )
                  (    -1          0          0      )

 cart.    s(35) = (  0.0000000  0.0000000 -0.9999999 )
                  (  0.0000000 -1.0000000  0.0000000 )
                  (  1.0000001  0.0000000  0.0000000 )


      isym = 36     inv.  90 deg rotation - cart. axis [0,-1,0]  

 cryst.   s(36) = (     0          0         -1      )
                  (     0         -1          0      )
                  (     1          0          0      )

 cart.    s(36) = (  0.0000000  0.0000000  0.9999999 )
                  (  0.0000000 -1.0000000  0.0000000 )
                  ( -1.0000001  0.0000000  0.0000000 )


      isym = 37     inv. 180 deg rotation - cart. axis [0,1,1]   

 cryst.   s(37) = (     1          0          0      )
                  (     0          0         -1      )
                  (     0         -1          0      )

 cart.    s(37) = (  1.0000000  0.0000000  0.0000000 )
                  (  0.0000000  0.0000000 -1.0000000 )
                  (  0.0000000 -1.0000000  0.0000000 )


      isym = 38     inv. 180 deg rotation - cart. axis [0,1,-1]  

 cryst.   s(38) = (     1          0          0      )
                  (     0          0          1      )
                  (     0          1          0      )

 cart.    s(38) = (  1.0000000  0.0000000  0.0000000 )
                  (  0.0000000  0.0000000  1.0000000 )
                  (  0.0000000  1.0000000  0.0000000 )


      isym = 39     inv.  90 deg rotation - cart. axis [-1,0,0]  

 cryst.   s(39) = (    -1          0          0      )
                  (     0          0          1      )
                  (     0         -1          0      )

 cart.    s(39) = ( -1.0000000  0.0000000  0.0000000 )
                  (  0.0000000  0.0000000 -1.0000000 )
                  (  0.0000000  1.0000000  0.0000000 )


      isym = 40     inv.  90 deg rotation - cart. axis [1,0,0]   

 cryst.   s(40) = (    -1          0          0      )
                  (     0          0         -1      )
                  (     0          1          0      )

 cart.    s(40) = ( -1.0000000  0.0000000  0.0000000 )
                  (  0.0000000  0.0000000  1.0000000 )
                  (  0.0000000 -1.0000000  0.0000000 )


      isym = 41     inv. 120 deg rotation - cart. axis [-1,-1,-1]

 cryst.   s(41) = (     0          0         -1      )
                  (    -1          0          0      )
                  (     0         -1          0      )

 cart.    s(41) = (  0.0000000 -0.9999999  0.0000000 )
                  (  0.0000000  0.0000000 -1.0000000 )
                  ( -1.0000001  0.0000000  0.0000000 )


      isym = 42     inv. 120 deg rotation - cart. axis [-1,1,1]  

 cryst.   s(42) = (     0          0          1      )
                  (     1          0          0      )
                  (     0         -1          0      )

 cart.    s(42) = (  0.0000000  0.9999999  0.0000000 )
                  (  0.0000000  0.0000000 -1.0000000 )
                  (  1.0000001  0.0000000  0.0000000 )


      isym = 43     inv. 120 deg rotation - cart. axis [1,1,-1]  

 cryst.   s(43) = (     0          0          1      )
                  (    -1          0          0      )
                  (     0          1          0      )

 cart.    s(43) = (  0.0000000 -0.9999999  0.0000000 )
                  (  0.0000000  0.0000000  1.0000000 )
                  (  1.0000001  0.0000000  0.0000000 )


      isym = 44     inv. 120 deg rotation - cart. axis [1,-1,1]  

 cryst.   s(44) = (     0          0         -1      )
                  (     1          0          0      )
                  (     0          1          0      )

 cart.    s(44) = (  0.0000000  0.9999999  0.0000000 )
                  (  0.0000000  0.0000000  1.0000000 )
                  ( -1.0000001  0.0000000  0.0000000 )


      isym = 45     inv. 120 deg rotation - cart. axis [1,1,1]   

 cryst.   s(45) = (     0         -1          0      )
                  (     0          0         -1      )
                  (    -1          0          0      )

 cart.    s(45) = (  0.0000000  0.0000000 -0.9999999 )
                  ( -1.0000001  0.0000000  0.0000000 )
                  (  0.0000000 -1.0000000  0.0000000 )


      isym = 46     inv. 120 deg rotation - cart. axis [-1,1,-1] 

 cryst.   s(46) = (     0          1          0      )
                  (     0          0          1      )
                  (    -1          0          0      )

 cart.    s(46) = (  0.0000000  0.0000000 -0.9999999 )
                  (  1.0000001  0.0000000  0.0000000 )
                  (  0.0000000  1.0000000  0.0000000 )


      isym = 47     inv. 120 deg rotation - cart. axis [1,-1,-1] 

 cryst.   s(47) = (     0          1          0      )
                  (     0          0         -1      )
                  (     1          0          0      )

 cart.    s(47) = (  0.0000000  0.0000000  0.9999999 )
                  (  1.0000001  0.0000000  0.0000000 )
                  (  0.0000000 -1.0000000  0.0000000 )


      isym = 48     inv. 120 deg rotation - cart. axis [-1,-1,1] 

 cryst.   s(48) = (     0         -1          0      )
                  (     0          0          1      )
                  (     1          0          0      )

 cart.    s(48) = (  0.0000000  0.0000000  0.9999999 )
                  ( -1.0000001  0.0000000  0.0000000 )
                  (  0.0000000  1.0000000  0.0000000 )


   Cartesian axes

     site n.     atom                  positions (alat units)
         1           U   tau(   1) = (   0.0000000   0.0000000   0.0000000  )
         2           U   tau(   2) = (   0.5000000   0.5000000   0.0000000  )
         3           U   tau(   3) = (   0.5000000   0.0000000   0.5000000  )
         4           U   tau(   4) = (   0.0000000   0.5000000   0.5000000  )

   Crystallographic axes

     site n.     atom                  positions (cryst. coord.)
         1           U   tau(   1) = (  0.0000000  0.0000000  0.0000000  )
         2           U   tau(   2) = (  0.5000000  0.5000000  0.0000000  )
         3           U   tau(   3) = (  0.5000000  0.0000000  0.5000000  )
         4           U   tau(   4) = (  0.0000000  0.5000000  0.5000000  )

     number of k points=    35  Marzari-Vanderbilt smearing, width (Ry)=  0.0500
                       cart. coord. in units 2pi/alat
        k(    1) = (   0.0000000   0.0000000   0.0000000), wk =   0.0019531
        k(    2) = (   0.0000000   0.0000000   0.1250000), wk =   0.0117188
        k(    3) = (   0.0000000   0.0000000   0.2500000), wk =   0.0117188
        k(    4) = (   0.0000000   0.0000000   0.3750000), wk =   0.0117188
        k(    5) = (   0.0000000   0.0000000  -0.5000000), wk =   0.0058594
        k(    6) = (   0.0000000   0.1250000   0.1250000), wk =   0.0234375
        k(    7) = (   0.0000000   0.1250000   0.2500000), wk =   0.0468750
        k(    8) = (   0.0000000   0.1250000   0.3750000), wk =   0.0468750
        k(    9) = (   0.0000000   0.1250000  -0.5000000), wk =   0.0234375
        k(   10) = (   0.0000000   0.2500000   0.2500000), wk =   0.0234375
        k(   11) = (   0.0000000   0.2500000   0.3750000), wk =   0.0468750
        k(   12) = (   0.0000000   0.2500000  -0.5000000), wk =   0.0234375
        k(   13) = (   0.0000000   0.3750000   0.3750000), wk =   0.0234375
        k(   14) = (   0.0000000   0.3750000  -0.5000000), wk =   0.0234375
        k(   15) = (   0.0000000  -0.5000000  -0.5000000), wk =   0.0058594
        k(   16) = (   0.1250000   0.1250000   0.1250000), wk =   0.0156250
        k(   17) = (   0.1250000   0.1250000   0.2500000), wk =   0.0468750
        k(   18) = (   0.1250000   0.1250000   0.3750000), wk =   0.0468750
        k(   19) = (   0.1250000   0.1250000  -0.5000000), wk =   0.0234375
        k(   20) = (   0.1250000   0.2500000   0.2500000), wk =   0.0468750
        k(   21) = (   0.1250000   0.2500000   0.3750000), wk =   0.0937500
        k(   22) = (   0.1250000   0.2500000  -0.5000000), wk =   0.0468750
        k(   23) = (   0.1250000   0.3750000   0.3750000), wk =   0.0468750
        k(   24) = (   0.1250000   0.3750000  -0.5000000), wk =   0.0468750
        k(   25) = (   0.1250000  -0.5000000  -0.5000000), wk =   0.0117188
        k(   26) = (   0.2500000   0.2500000   0.2500000), wk =   0.0156250
        k(   27) = (   0.2500000   0.2500000   0.3750000), wk =   0.0468750
        k(   28) = (   0.2500000   0.2500000  -0.5000000), wk =   0.0234375
        k(   29) = (   0.2500000   0.3750000   0.3750000), wk =   0.0468750
        k(   30) = (   0.2500000   0.3750000  -0.5000000), wk =   0.0468750
        k(   31) = (   0.2500000  -0.5000000  -0.5000000), wk =   0.0117188
        k(   32) = (   0.3750000   0.3750000   0.3750000), wk =   0.0156250
        k(   33) = (   0.3750000   0.3750000  -0.5000000), wk =   0.0234375
        k(   34) = (   0.3750000  -0.5000000  -0.5000000), wk =   0.0117188
        k(   35) = (  -0.5000000  -0.5000000  -0.5000000), wk =   0.0019531

                       cryst. coord.
        k(    1) = (   0.0000000   0.0000000   0.0000000), wk =   0.0019531
        k(    2) = (   0.0000000   0.0000000   0.1250000), wk =   0.0117188
        k(    3) = (   0.0000000   0.0000000   0.2500000), wk =   0.0117188
        k(    4) = (   0.0000000   0.0000000   0.3750000), wk =   0.0117188
        k(    5) = (   0.0000000   0.0000000  -0.5000000), wk =   0.0058594
        k(    6) = (   0.0000000   0.1250000   0.1250000), wk =   0.0234375
        k(    7) = (   0.0000000   0.1250000   0.2500000), wk =   0.0468750
        k(    8) = (   0.0000000   0.1250000   0.3750000), wk =   0.0468750
        k(    9) = (   0.0000000   0.1250000  -0.5000000), wk =   0.0234375
        k(   10) = (   0.0000000   0.2500000   0.2500000), wk =   0.0234375
        k(   11) = (   0.0000000   0.2500000   0.3750000), wk =   0.0468750
        k(   12) = (   0.0000000   0.2500000  -0.5000000), wk =   0.0234375
        k(   13) = (   0.0000000   0.3750000   0.3750000), wk =   0.0234375
        k(   14) = (   0.0000000   0.3750000  -0.5000000), wk =   0.0234375
        k(   15) = (   0.0000000  -0.5000000  -0.5000000), wk =   0.0058594
        k(   16) = (   0.1250000   0.1250000   0.1250000), wk =   0.0156250
        k(   17) = (   0.1250000   0.1250000   0.2500000), wk =   0.0468750
        k(   18) = (   0.1250000   0.1250000   0.3750000), wk =   0.0468750
        k(   19) = (   0.1250000   0.1250000  -0.5000000), wk =   0.0234375
        k(   20) = (   0.1250000   0.2500000   0.2500000), wk =   0.0468750
        k(   21) = (   0.1250000   0.2500000   0.3750000), wk =   0.0937500
        k(   22) = (   0.1250000   0.2500000  -0.5000000), wk =   0.0468750
        k(   23) = (   0.1250000   0.3750000   0.3750000), wk =   0.0468750
        k(   24) = (   0.1250000   0.3750000  -0.5000000), wk =   0.0468750
        k(   25) = (   0.1250000  -0.5000000  -0.5000000), wk =   0.0117188
        k(   26) = (   0.2500000   0.2500000   0.2500000), wk =   0.0156250
        k(   27) = (   0.2500000   0.2500000   0.3750000), wk =   0.0468750
        k(   28) = (   0.2500000   0.2500000  -0.5000000), wk =   0.0234375
        k(   29) = (   0.2500000   0.3750000   0.3750000), wk =   0.0468750
        k(   30) = (   0.2500000   0.3750000  -0.5000000), wk =   0.0468750
        k(   31) = (   0.2500000  -0.5000000  -0.5000000), wk =   0.0117188
        k(   32) = (   0.3750000   0.3750000   0.3750000), wk =   0.0156250
        k(   33) = (   0.3750000   0.3750000  -0.5000000), wk =   0.0234375
        k(   34) = (   0.3750000  -0.5000000  -0.5000000), wk =   0.0117188
        k(   35) = (  -0.5000000  -0.5000000  -0.5000000), wk =   0.0019531

     Dense  grid:   201485 G-vectors     FFT dimensions: (  75,  75,  75)

     Smooth grid:    71327 G-vectors     FFT dimensions: (  54,  54,  54)

     Dynamical RAM for                 wfc:       0.14 MB

     Dynamical RAM for     wfc (w. buffer):       9.64 MB

     Dynamical RAM for           str. fact:       0.10 MB

     Dynamical RAM for           local pot:       0.00 MB

     Dynamical RAM for          nlocal pot:       0.54 MB

     Dynamical RAM for                qrad:       5.25 MB

     Dynamical RAM for          rho,v,vnew:       1.35 MB

     Dynamical RAM for               rhoin:       0.45 MB

     Dynamical RAM for            rho*nmix:       3.07 MB

     Dynamical RAM for           G-vectors:       0.38 MB

     Dynamical RAM for          h,s,v(r/c):       0.19 MB

     Dynamical RAM for          <psi|beta>:       0.06 MB

     Dynamical RAM for                 psi:       0.27 MB

     Dynamical RAM for                hpsi:       0.27 MB

     Dynamical RAM for                spsi:       0.27 MB

     Dynamical RAM for      wfcinit/wfcrot:       0.30 MB

     Dynamical RAM for           addusdens:      53.80 MB

     Dynamical RAM for          addusforce:      54.47 MB

     Dynamical RAM for         addusstress:      56.06 MB

     Estimated static dynamical RAM per process >      18.67 MB

     Estimated max dynamical RAM per process >      77.80 MB

     Estimated total dynamical RAM >       2.43 GB
     Generating pointlists ...
     new r_m :   0.2917 (alat units)  2.4436 (a.u.) for type    1

     Initial potential from superposition of free atoms

     starting charge   55.98204, renormalised to   56.00000
     Starting wfcs are random

     total cpu time spent up to now is        4.6 secs

     Self-consistent Calculation

     iteration #  1     ecut=    93.00 Ry     beta= 0.50
     Davidson diagonalization with overlap

---- Real-time Memory Report at c_bands before calling an iterative solver
            91 MiB given to the printing process from OS
             0 MiB allocation reported by mallinfo(arena+hblkhd)
          9896 MiB available memory on the node where the printing process lives
------------------
     ethr =  1.00E-02,  avg # of iterations = 11.1

     total cpu time spent up to now is       30.7 secs

     total energy              =    -516.14644732 Ry
     estimated scf accuracy    <       1.79359113 Ry

     total magnetization       =     2.47 Bohr mag/cell
     absolute magnetization    =     2.47 Bohr mag/cell

     iteration #  2     ecut=    93.00 Ry     beta= 0.50
     Davidson diagonalization with overlap

---- Real-time Memory Report at c_bands before calling an iterative solver
           103 MiB given to the printing process from OS
             0 MiB allocation reported by mallinfo(arena+hblkhd)
          9739 MiB available memory on the node where the printing process lives
------------------
     ethr =  3.20E-03,  avg # of iterations =  7.0

     total cpu time spent up to now is       46.9 secs

     total energy              =    -517.13236708 Ry
     estimated scf accuracy    <       1.61278104 Ry

     total magnetization       =     2.89 Bohr mag/cell
     absolute magnetization    =     2.89 Bohr mag/cell

     iteration #  3     ecut=    93.00 Ry     beta= 0.50
     Davidson diagonalization with overlap

---- Real-time Memory Report at c_bands before calling an iterative solver
           104 MiB given to the printing process from OS
             0 MiB allocation reported by mallinfo(arena+hblkhd)
          9743 MiB available memory on the node where the printing process lives
------------------
     ethr =  2.88E-03,  avg # of iterations =  2.2

     total cpu time spent up to now is       56.0 secs

     total energy              =    -517.29681282 Ry
     estimated scf accuracy    <       0.14046324 Ry

     total magnetization       =     2.17 Bohr mag/cell
     absolute magnetization    =     2.17 Bohr mag/cell

     iteration #  4     ecut=    93.00 Ry     beta= 0.50
     Davidson diagonalization with overlap

---- Real-time Memory Report at c_bands before calling an iterative solver
           104 MiB given to the printing process from OS
             0 MiB allocation reported by mallinfo(arena+hblkhd)
          9738 MiB available memory on the node where the printing process lives
------------------
     c_bands:  1 eigenvalues not converged
     c_bands:  3 eigenvalues not converged
     c_bands:  1 eigenvalues not converged
     c_bands:  2 eigenvalues not converged
     c_bands:  1 eigenvalues not converged
     c_bands:  1 eigenvalues not converged
     c_bands:  1 eigenvalues not converged
     c_bands:  4 eigenvalues not converged
     c_bands:  1 eigenvalues not converged
     c_bands:  3 eigenvalues not converged
     c_bands:  2 eigenvalues not converged
     c_bands:  4 eigenvalues not converged
     c_bands:  1 eigenvalues not converged
     c_bands:  3 eigenvalues not converged
     c_bands:  2 eigenvalues not converged
     c_bands:  3 eigenvalues not converged
     c_bands:  1 eigenvalues not converged
     c_bands:  1 eigenvalues not converged
     c_bands:  5 eigenvalues not converged
     c_bands:  3 eigenvalues not converged
     c_bands:  2 eigenvalues not converged
     c_bands:  1 eigenvalues not converged
     c_bands:  3 eigenvalues not converged
     c_bands:  3 eigenvalues not converged
     c_bands:  5 eigenvalues not converged
     c_bands:  1 eigenvalues not converged
     c_bands:  3 eigenvalues not converged
     c_bands:  5 eigenvalues not converged
     c_bands:  1 eigenvalues not converged
     c_bands:  2 eigenvalues not converged
     c_bands:  1 eigenvalues not converged
     c_bands:  2 eigenvalues not converged
     c_bands:  2 eigenvalues not converged
     c_bands:  3 eigenvalues not converged
     c_bands:  3 eigenvalues not converged
     c_bands:  2 eigenvalues not converged
     c_bands:  4 eigenvalues not converged
     c_bands:  1 eigenvalues not converged
     c_bands:  2 eigenvalues not converged
     c_bands:  4 eigenvalues not converged
     c_bands:  1 eigenvalues not converged
     c_bands:  1 eigenvalues not converged
     c_bands:  1 eigenvalues not converged
     c_bands:  1 eigenvalues not converged
     c_bands:  2 eigenvalues not converged
     c_bands:  2 eigenvalues not converged
     c_bands:  1 eigenvalues not converged
     c_bands:  1 eigenvalues not converged
     c_bands:  2 eigenvalues not converged
     c_bands:  3 eigenvalues not converged
     c_bands:  3 eigenvalues not converged
     c_bands:  1 eigenvalues not converged
     c_bands:  5 eigenvalues not converged
     c_bands:  5 eigenvalues not converged
     c_bands:  1 eigenvalues not converged
     c_bands:  2 eigenvalues not converged
     ethr =  2.51E-04,  avg # of iterations = 20.6

     total cpu time spent up to now is       80.8 secs

     total energy              =    -517.44490609 Ry
     estimated scf accuracy    <       0.33812917 Ry

     total magnetization       =     2.10 Bohr mag/cell
     absolute magnetization    =     2.11 Bohr mag/cell

     iteration #  5     ecut=    93.00 Ry     beta= 0.50
     Davidson diagonalization with overlap

---- Real-time Memory Report at c_bands before calling an iterative solver
           105 MiB given to the printing process from OS
             0 MiB allocation reported by mallinfo(arena+hblkhd)
          9740 MiB available memory on the node where the printing process lives
------------------
     c_bands:  1 eigenvalues not converged
     c_bands:  1 eigenvalues not converged
     c_bands:  1 eigenvalues not converged
     c_bands:  1 eigenvalues not converged
     c_bands:  1 eigenvalues not converged
     c_bands:  1 eigenvalues not converged
     c_bands:  1 eigenvalues not converged
     c_bands:  2 eigenvalues not converged
     c_bands:  1 eigenvalues not converged
     c_bands:  2 eigenvalues not converged
     c_bands:  1 eigenvalues not converged
     c_bands:  1 eigenvalues not converged
     c_bands:  2 eigenvalues not converged
     ethr =  2.51E-04,  avg # of iterations = 11.1

     total cpu time spent up to now is       93.0 secs

     total energy              =    -517.44912476 Ry
     estimated scf accuracy    <       0.06597812 Ry

     total magnetization       =     2.06 Bohr mag/cell
     absolute magnetization    =     2.07 Bohr mag/cell

     iteration #  6     ecut=    93.00 Ry     beta= 0.50
     Davidson diagonalization with overlap

---- Real-time Memory Report at c_bands before calling an iterative solver
           105 MiB given to the printing process from OS
             0 MiB allocation reported by mallinfo(arena+hblkhd)
          9737 MiB available memory on the node where the printing process lives
------------------
     c_bands:  2 eigenvalues not converged
     c_bands:  4 eigenvalues not converged
     c_bands:  1 eigenvalues not converged
     c_bands:  1 eigenvalues not converged
     c_bands:  2 eigenvalues not converged
     c_bands:  3 eigenvalues not converged
     c_bands:  1 eigenvalues not converged
     c_bands:  2 eigenvalues not converged
     c_bands:  3 eigenvalues not converged
     c_bands:  1 eigenvalues not converged
     c_bands:  1 eigenvalues not converged
     c_bands:  2 eigenvalues not converged
     c_bands:  1 eigenvalues not converged
     c_bands:  3 eigenvalues not converged
     c_bands:  1 eigenvalues not converged
     c_bands:  2 eigenvalues not converged
     c_bands:  2 eigenvalues not converged
     c_bands:  2 eigenvalues not converged
     c_bands:  2 eigenvalues not converged
     c_bands:  1 eigenvalues not converged
     c_bands:  1 eigenvalues not converged
     c_bands:  1 eigenvalues not converged
     c_bands:  1 eigenvalues not converged
     c_bands:  4 eigenvalues not converged
     c_bands:  1 eigenvalues not converged
     c_bands:  4 eigenvalues not converged
     c_bands:  5 eigenvalues not converged
     c_bands:  2 eigenvalues not converged
     c_bands:  2 eigenvalues not converged
     c_bands:  1 eigenvalues not converged
     c_bands:  1 eigenvalues not converged
     c_bands:  2 eigenvalues not converged
     c_bands:  2 eigenvalues not converged
     c_bands:  4 eigenvalues not converged
     c_bands:  2 eigenvalues not converged
     c_bands:  1 eigenvalues not converged
     c_bands:  2 eigenvalues not converged
     c_bands:  1 eigenvalues not converged
     c_bands:  3 eigenvalues not converged
     c_bands:  1 eigenvalues not converged
     c_bands:  3 eigenvalues not converged
     c_bands:  3 eigenvalues not converged
     c_bands:  2 eigenvalues not converged
     c_bands:  3 eigenvalues not converged
     c_bands:  1 eigenvalues not converged
     c_bands:  2 eigenvalues not converged
     c_bands:  2 eigenvalues not converged
     c_bands:  1 eigenvalues not converged
     c_bands:  2 eigenvalues not converged
     c_bands:  1 eigenvalues not converged
     c_bands:  1 eigenvalues not converged
     c_bands:  2 eigenvalues not converged
     ethr =  1.18E-04,  avg # of iterations = 19.5

     total cpu time spent up to now is      115.7 secs

     total energy              =    -517.47479442 Ry
     estimated scf accuracy    <       0.90799150 Ry

     total magnetization       =     1.95 Bohr mag/cell
     absolute magnetization    =     1.97 Bohr mag/cell

     iteration #  7     ecut=    93.00 Ry     beta= 0.50
     Davidson diagonalization with overlap

---- Real-time Memory Report at c_bands before calling an iterative solver
           105 MiB given to the printing process from OS
             0 MiB allocation reported by mallinfo(arena+hblkhd)
          9723 MiB available memory on the node where the printing process lives
------------------
     c_bands:  1 eigenvalues not converged
     c_bands:  1 eigenvalues not converged
     c_bands:  1 eigenvalues not converged
     c_bands:  1 eigenvalues not converged
     c_bands:  1 eigenvalues not converged
     ethr =  1.18E-04,  avg # of iterations =  7.5

     total cpu time spent up to now is      126.0 secs

     total energy              =    -517.45859851 Ry
     estimated scf accuracy    <       0.40022869 Ry

     total magnetization       =     1.91 Bohr mag/cell
     absolute magnetization    =     1.92 Bohr mag/cell

     iteration #  8     ecut=    93.00 Ry     beta= 0.50
     Davidson diagonalization with overlap

---- Real-time Memory Report at c_bands before calling an iterative solver
           106 MiB given to the printing process from OS
             0 MiB allocation reported by mallinfo(arena+hblkhd)
          9726 MiB available memory on the node where the printing process lives
------------------
     c_bands:  1 eigenvalues not converged
     c_bands:  1 eigenvalues not converged
     c_bands:  1 eigenvalues not converged
     c_bands:  1 eigenvalues not converged
     c_bands:  1 eigenvalues not converged
     c_bands:  1 eigenvalues not converged
     c_bands:  1 eigenvalues not converged
     c_bands:  1 eigenvalues not converged
     ethr =  1.18E-04,  avg # of iterations = 13.2

     total cpu time spent up to now is      141.3 secs

     total energy              =    -517.48062754 Ry
     estimated scf accuracy    <       0.00251259 Ry

     total magnetization       =     1.77 Bohr mag/cell
     absolute magnetization    =     1.79 Bohr mag/cell

     iteration #  9     ecut=    93.00 Ry     beta= 0.50
     Davidson diagonalization with overlap

---- Real-time Memory Report at c_bands before calling an iterative solver
           106 MiB given to the printing process from OS
             0 MiB allocation reported by mallinfo(arena+hblkhd)
          9723 MiB available memory on the node where the printing process lives
------------------
     c_bands:  1 eigenvalues not converged
     c_bands:  5 eigenvalues not converged
     c_bands:  1 eigenvalues not converged
     c_bands:  1 eigenvalues not converged
     c_bands:  1 eigenvalues not converged
     c_bands:  3 eigenvalues not converged
     c_bands:  5 eigenvalues not converged
     c_bands:  3 eigenvalues not converged
     c_bands:  2 eigenvalues not converged
     c_bands:  4 eigenvalues not converged
     c_bands:  5 eigenvalues not converged
     c_bands:  2 eigenvalues not converged
     c_bands:  4 eigenvalues not converged
     c_bands:  4 eigenvalues not converged
     c_bands:  4 eigenvalues not converged
     c_bands:  5 eigenvalues not converged
     c_bands:  3 eigenvalues not converged
     c_bands:  2 eigenvalues not converged
     c_bands:  5 eigenvalues not converged
     c_bands:  4 eigenvalues not converged
     c_bands:  4 eigenvalues not converged
     c_bands:  5 eigenvalues not converged
     c_bands:  5 eigenvalues not converged
     c_bands:  2 eigenvalues not converged
     c_bands:  5 eigenvalues not converged
     c_bands:  4 eigenvalues not converged
     c_bands:  1 eigenvalues not converged
     c_bands:  2 eigenvalues not converged
     c_bands:  4 eigenvalues not converged
     c_bands:  3 eigenvalues not converged
     c_bands:  3 eigenvalues not converged
     c_bands:  2 eigenvalues not converged
     c_bands:  3 eigenvalues not converged
     c_bands:  3 eigenvalues not converged
     c_bands:  2 eigenvalues not converged
     c_bands:  2 eigenvalues not converged
     c_bands:  3 eigenvalues not converged
     c_bands:  4 eigenvalues not converged
     c_bands:  3 eigenvalues not converged
     c_bands:  3 eigenvalues not converged
     c_bands:  3 eigenvalues not converged
     c_bands:  1 eigenvalues not converged
     c_bands:  2 eigenvalues not converged
     c_bands:  5 eigenvalues not converged
     c_bands:  3 eigenvalues not converged
     c_bands:  2 eigenvalues not converged
     c_bands:  4 eigenvalues not converged
     c_bands:  3 eigenvalues not converged
     c_bands:  3 eigenvalues not converged
     c_bands:  5 eigenvalues not converged
     c_bands:  4 eigenvalues not converged
     c_bands:  1 eigenvalues not converged
     c_bands:  1 eigenvalues not converged
     c_bands:  4 eigenvalues not converged
     c_bands:  3 eigenvalues not converged
     c_bands:  5 eigenvalues not converged
     c_bands:  2 eigenvalues not converged
     c_bands:  1 eigenvalues not converged
     c_bands:  3 eigenvalues not converged
     c_bands:  5 eigenvalues not converged
     ethr =  4.49E-06,  avg # of iterations = 19.7

     total cpu time spent up to now is      166.9 secs

     total energy              =    -517.48320227 Ry
     estimated scf accuracy    <       0.06670277 Ry

     total magnetization       =     1.68 Bohr mag/cell
     absolute magnetization    =     1.71 Bohr mag/cell

     iteration # 10     ecut=    93.00 Ry     beta= 0.50
     Davidson diagonalization with overlap

---- Real-time Memory Report at c_bands before calling an iterative solver
           106 MiB given to the printing process from OS
             0 MiB allocation reported by mallinfo(arena+hblkhd)
          9719 MiB available memory on the node where the printing process lives
------------------
     c_bands:  1 eigenvalues not converged
     c_bands:  1 eigenvalues not converged
     c_bands:  2 eigenvalues not converged
     c_bands:  1 eigenvalues not converged
     c_bands:  1 eigenvalues not converged
     c_bands:  3 eigenvalues not converged
     c_bands:  1 eigenvalues not converged
     c_bands:  2 eigenvalues not converged
     c_bands:  2 eigenvalues not converged
     c_bands:  2 eigenvalues not converged
     c_bands:  1 eigenvalues not converged
     c_bands:  1 eigenvalues not converged
     c_bands:  2 eigenvalues not converged
     c_bands:  4 eigenvalues not converged
     c_bands:  2 eigenvalues not converged
     c_bands:  2 eigenvalues not converged
     c_bands:  1 eigenvalues not converged
     c_bands:  2 eigenvalues not converged
     c_bands:  1 eigenvalues not converged
     c_bands:  1 eigenvalues not converged
     c_bands:  1 eigenvalues not converged
     c_bands:  1 eigenvalues not converged
     c_bands:  4 eigenvalues not converged
     c_bands:  4 eigenvalues not converged
     c_bands:  1 eigenvalues not converged
     c_bands:  3 eigenvalues not converged
     c_bands:  2 eigenvalues not converged
     c_bands:  1 eigenvalues not converged
     ethr =  4.49E-06,  avg # of iterations = 15.1

     total cpu time spent up to now is      183.7 secs

     total energy              =    -517.48229341 Ry
     estimated scf accuracy    <       0.02003809 Ry

     total magnetization       =     1.63 Bohr mag/cell
     absolute magnetization    =     1.65 Bohr mag/cell

     iteration # 11     ecut=    93.00 Ry     beta= 0.50
     Davidson diagonalization with overlap

---- Real-time Memory Report at c_bands before calling an iterative solver
           107 MiB given to the printing process from OS
             0 MiB allocation reported by mallinfo(arena+hblkhd)
          9722 MiB available memory on the node where the printing process lives
------------------
     c_bands:  2 eigenvalues not converged
     c_bands:  1 eigenvalues not converged
     c_bands:  1 eigenvalues not converged
     c_bands:  2 eigenvalues not converged
     c_bands:  2 eigenvalues not converged
     c_bands:  1 eigenvalues not converged
     c_bands:  1 eigenvalues not converged
     c_bands:  4 eigenvalues not converged
     c_bands:  4 eigenvalues not converged
     c_bands:  2 eigenvalues not converged
     c_bands:  1 eigenvalues not converged
     c_bands:  3 eigenvalues not converged
     c_bands:  2 eigenvalues not converged
     c_bands:  1 eigenvalues not converged
     c_bands:  4 eigenvalues not converged
     c_bands:  4 eigenvalues not converged
     c_bands:  1 eigenvalues not converged
     c_bands:  1 eigenvalues not converged
     c_bands:  1 eigenvalues not converged
     c_bands:  3 eigenvalues not converged
     c_bands:  1 eigenvalues not converged
     c_bands:  1 eigenvalues not converged
     c_bands:  2 eigenvalues not converged
     c_bands:  1 eigenvalues not converged
     c_bands:  1 eigenvalues not converged
     c_bands:  1 eigenvalues not converged
     c_bands:  2 eigenvalues not converged
     c_bands:  4 eigenvalues not converged
     c_bands:  3 eigenvalues not converged
     c_bands:  2 eigenvalues not converged
     c_bands:  2 eigenvalues not converged
     c_bands:  3 eigenvalues not converged
     c_bands:  4 eigenvalues not converged
     c_bands:  1 eigenvalues not converged
     c_bands:  1 eigenvalues not converged
     c_bands:  2 eigenvalues not converged
     c_bands:  1 eigenvalues not converged
     c_bands:  1 eigenvalues not converged
     ethr =  4.49E-06,  avg # of iterations = 17.6

     total cpu time spent up to now is      206.1 secs

     total energy              =    -517.48451099 Ry
     estimated scf accuracy    <       0.02267638 Ry

     total magnetization       =     1.53 Bohr mag/cell
     absolute magnetization    =     1.56 Bohr mag/cell

     iteration # 12     ecut=    93.00 Ry     beta= 0.50
     Davidson diagonalization with overlap

---- Real-time Memory Report at c_bands before calling an iterative solver
           107 MiB given to the printing process from OS
             0 MiB allocation reported by mallinfo(arena+hblkhd)
          9720 MiB available memory on the node where the printing process lives
------------------
     c_bands:  1 eigenvalues not converged
     c_bands:  1 eigenvalues not converged
     c_bands:  1 eigenvalues not converged
     c_bands:  1 eigenvalues not converged
     c_bands:  2 eigenvalues not converged
     c_bands:  1 eigenvalues not converged
     c_bands:  1 eigenvalues not converged
     c_bands:  2 eigenvalues not converged
     c_bands:  2 eigenvalues not converged
     c_bands:  1 eigenvalues not converged
     c_bands:  1 eigenvalues not converged
     c_bands:  1 eigenvalues not converged
     ethr =  4.49E-06,  avg # of iterations =  6.9

     total cpu time spent up to now is      216.2 secs

     total energy              =    -517.48376533 Ry
     estimated scf accuracy    <       0.00967710 Ry

     total magnetization       =     1.52 Bohr mag/cell
     absolute magnetization    =     1.55 Bohr mag/cell

     iteration # 13     ecut=    93.00 Ry     beta= 0.50
     Davidson diagonalization with overlap

---- Real-time Memory Report at c_bands before calling an iterative solver
           107 MiB given to the printing process from OS
             0 MiB allocation reported by mallinfo(arena+hblkhd)
          9720 MiB available memory on the node where the printing process lives
------------------
     c_bands:  2 eigenvalues not converged
     c_bands:  1 eigenvalues not converged
     c_bands:  2 eigenvalues not converged
     c_bands:  1 eigenvalues not converged
     c_bands:  2 eigenvalues not converged
     c_bands:  1 eigenvalues not converged
     c_bands:  1 eigenvalues not converged
     c_bands:  1 eigenvalues not converged
     c_bands:  4 eigenvalues not converged
     c_bands:  4 eigenvalues not converged
     c_bands:  2 eigenvalues not converged
     c_bands:  2 eigenvalues not converged
     c_bands:  1 eigenvalues not converged
     c_bands:  1 eigenvalues not converged
     c_bands:  2 eigenvalues not converged
     c_bands:  1 eigenvalues not converged
     c_bands:  1 eigenvalues not converged
     c_bands:  3 eigenvalues not converged
     c_bands:  1 eigenvalues not converged
     ethr =  4.49E-06,  avg # of iterations = 14.8

     total cpu time spent up to now is      234.1 secs

     total energy              =    -517.48486123 Ry
     estimated scf accuracy    <       0.00750386 Ry

     total magnetization       =     1.47 Bohr mag/cell
     absolute magnetization    =     1.50 Bohr mag/cell

     iteration # 14     ecut=    93.00 Ry     beta= 0.50
     Davidson diagonalization with overlap

---- Real-time Memory Report at c_bands before calling an iterative solver
           107 MiB given to the printing process from OS
             0 MiB allocation reported by mallinfo(arena+hblkhd)
          9716 MiB available memory on the node where the printing process lives
------------------
     c_bands:  1 eigenvalues not converged
     c_bands:  1 eigenvalues not converged
     c_bands:  1 eigenvalues not converged
     c_bands:  1 eigenvalues not converged
     c_bands:  1 eigenvalues not converged
     ethr =  4.49E-06,  avg # of iterations =  3.0

     total cpu time spent up to now is      242.4 secs

     total energy              =    -517.48480731 Ry
     estimated scf accuracy    <       0.00372942 Ry

     total magnetization       =     1.40 Bohr mag/cell
     absolute magnetization    =     1.43 Bohr mag/cell

     iteration # 15     ecut=    93.00 Ry     beta= 0.50
     Davidson diagonalization with overlap

---- Real-time Memory Report at c_bands before calling an iterative solver
           107 MiB given to the printing process from OS
             0 MiB allocation reported by mallinfo(arena+hblkhd)
          9716 MiB available memory on the node where the printing process lives
------------------
     c_bands:  1 eigenvalues not converged
     c_bands:  1 eigenvalues not converged
     ethr =  4.49E-06,  avg # of iterations =  2.0

     total cpu time spent up to now is      250.3 secs

     total energy              =    -517.48466164 Ry
     estimated scf accuracy    <       0.00198613 Ry

     total magnetization       =     1.36 Bohr mag/cell
     absolute magnetization    =     1.40 Bohr mag/cell

     iteration # 16     ecut=    93.00 Ry     beta= 0.50
     Davidson diagonalization with overlap

---- Real-time Memory Report at c_bands before calling an iterative solver
           107 MiB given to the printing process from OS
             0 MiB allocation reported by mallinfo(arena+hblkhd)
          9716 MiB available memory on the node where the printing process lives
------------------
     c_bands:  1 eigenvalues not converged
     c_bands:  1 eigenvalues not converged
     c_bands:  1 eigenvalues not converged
     c_bands:  1 eigenvalues not converged
     c_bands:  1 eigenvalues not converged
     c_bands:  1 eigenvalues not converged
     ethr =  3.55E-06,  avg # of iterations = 10.5

     total cpu time spent up to now is      262.5 secs

     total energy              =    -517.48498877 Ry
     estimated scf accuracy    <       0.00039196 Ry

     total magnetization       =     1.27 Bohr mag/cell
     absolute magnetization    =     1.30 Bohr mag/cell

     iteration # 17     ecut=    93.00 Ry     beta= 0.50
     Davidson diagonalization with overlap

---- Real-time Memory Report at c_bands before calling an iterative solver
           107 MiB given to the printing process from OS
             0 MiB allocation reported by mallinfo(arena+hblkhd)
          9718 MiB available memory on the node where the printing process lives
------------------
     c_bands:  1 eigenvalues not converged
     c_bands:  2 eigenvalues not converged
     c_bands:  1 eigenvalues not converged
     c_bands:  1 eigenvalues not converged
     c_bands:  3 eigenvalues not converged
     c_bands:  1 eigenvalues not converged
     c_bands:  1 eigenvalues not converged
     c_bands:  1 eigenvalues not converged
     c_bands:  1 eigenvalues not converged
     c_bands:  2 eigenvalues not converged
     c_bands:  3 eigenvalues not converged
     c_bands:  1 eigenvalues not converged
     c_bands:  2 eigenvalues not converged
     ethr =  7.00E-07,  avg # of iterations = 12.0

     total cpu time spent up to now is      277.3 secs

     total energy              =    -517.48509966 Ry
     estimated scf accuracy    <       0.00319371 Ry

     total magnetization       =     1.26 Bohr mag/cell
     absolute magnetization    =     1.29 Bohr mag/cell

     iteration # 18     ecut=    93.00 Ry     beta= 0.50
     Davidson diagonalization with overlap

---- Real-time Memory Report at c_bands before calling an iterative solver
           107 MiB given to the printing process from OS
             0 MiB allocation reported by mallinfo(arena+hblkhd)
          9719 MiB available memory on the node where the printing process lives
------------------
     c_bands:  2 eigenvalues not converged
     c_bands:  1 eigenvalues not converged
     c_bands:  1 eigenvalues not converged
     ethr =  7.00E-07,  avg # of iterations =  2.2

     total cpu time spent up to now is      285.3 secs

     total energy              =    -517.48504160 Ry
     estimated scf accuracy    <       0.00262524 Ry

     total magnetization       =     1.31 Bohr mag/cell
     absolute magnetization    =     1.34 Bohr mag/cell

     iteration # 19     ecut=    93.00 Ry     beta= 0.50
     Davidson diagonalization with overlap

---- Real-time Memory Report at c_bands before calling an iterative solver
           108 MiB given to the printing process from OS
             0 MiB allocation reported by mallinfo(arena+hblkhd)
          9721 MiB available memory on the node where the printing process lives
------------------
     c_bands:  1 eigenvalues not converged
     ethr =  7.00E-07,  avg # of iterations =  2.0

     total cpu time spent up to now is      293.2 secs

     total energy              =    -517.48499383 Ry
     estimated scf accuracy    <       0.00179020 Ry

     total magnetization       =     1.26 Bohr mag/cell
     absolute magnetization    =     1.28 Bohr mag/cell

     iteration # 20     ecut=    93.00 Ry     beta= 0.50
     Davidson diagonalization with overlap

---- Real-time Memory Report at c_bands before calling an iterative solver
           108 MiB given to the printing process from OS
             0 MiB allocation reported by mallinfo(arena+hblkhd)
          9722 MiB available memory on the node where the printing process lives
------------------
     c_bands:  1 eigenvalues not converged
     c_bands:  1 eigenvalues not converged
     ethr =  7.00E-07,  avg # of iterations =  7.5

     total cpu time spent up to now is      303.5 secs

     total energy              =    -517.48492202 Ry
     estimated scf accuracy    <       0.00061272 Ry

     total magnetization       =     1.18 Bohr mag/cell
     absolute magnetization    =     1.21 Bohr mag/cell

     iteration # 21     ecut=    93.00 Ry     beta= 0.50
     Davidson diagonalization with overlap

---- Real-time Memory Report at c_bands before calling an iterative solver
           108 MiB given to the printing process from OS
             0 MiB allocation reported by mallinfo(arena+hblkhd)
          9723 MiB available memory on the node where the printing process lives
------------------
     c_bands:  2 eigenvalues not converged
     c_bands:  2 eigenvalues not converged
     c_bands:  3 eigenvalues not converged
     c_bands:  1 eigenvalues not converged
     c_bands:  2 eigenvalues not converged
     c_bands:  1 eigenvalues not converged
     c_bands:  1 eigenvalues not converged
     c_bands:  2 eigenvalues not converged
     c_bands:  1 eigenvalues not converged
     c_bands:  1 eigenvalues not converged
     c_bands:  2 eigenvalues not converged
     ethr =  7.00E-07,  avg # of iterations = 11.9

     total cpu time spent up to now is      318.0 secs

     total energy              =    -517.48509859 Ry
     estimated scf accuracy    <       0.00055740 Ry

     total magnetization       =     1.03 Bohr mag/cell
     absolute magnetization    =     1.05 Bohr mag/cell

     iteration # 22     ecut=    93.00 Ry     beta= 0.50
     Davidson diagonalization with overlap

---- Real-time Memory Report at c_bands before calling an iterative solver
           108 MiB given to the printing process from OS
             0 MiB allocation reported by mallinfo(arena+hblkhd)
          9723 MiB available memory on the node where the printing process lives
------------------
     c_bands:  1 eigenvalues not converged
     c_bands:  1 eigenvalues not converged
     c_bands:  2 eigenvalues not converged
     c_bands:  2 eigenvalues not converged
     c_bands:  1 eigenvalues not converged
     ethr =  7.00E-07,  avg # of iterations =  4.5

     total cpu time spent up to now is      327.1 secs

     total energy              =    -517.48516985 Ry
     estimated scf accuracy    <       0.00099875 Ry

     total magnetization       =     0.89 Bohr mag/cell
     absolute magnetization    =     0.91 Bohr mag/cell

     iteration # 23     ecut=    93.00 Ry     beta= 0.50
     Davidson diagonalization with overlap

---- Real-time Memory Report at c_bands before calling an iterative solver
           108 MiB given to the printing process from OS
             0 MiB allocation reported by mallinfo(arena+hblkhd)
          9723 MiB available memory on the node where the printing process lives
------------------
     c_bands:  2 eigenvalues not converged
     ethr =  7.00E-07,  avg # of iterations =  1.5

     total cpu time spent up to now is      334.9 secs

     total energy              =    -517.48517001 Ry
     estimated scf accuracy    <       0.00091078 Ry

     total magnetization       =     0.88 Bohr mag/cell
     absolute magnetization    =     0.90 Bohr mag/cell

     iteration # 24     ecut=    93.00 Ry     beta= 0.50
     Davidson diagonalization with overlap

---- Real-time Memory Report at c_bands before calling an iterative solver
           109 MiB given to the printing process from OS
             0 MiB allocation reported by mallinfo(arena+hblkhd)
          9723 MiB available memory on the node where the printing process lives
------------------
     c_bands:  2 eigenvalues not converged
     ethr =  7.00E-07,  avg # of iterations =  1.3

     total cpu time spent up to now is      342.6 secs

     total energy              =    -517.48520174 Ry
     estimated scf accuracy    <       0.00103685 Ry

     total magnetization       =     0.82 Bohr mag/cell
     absolute magnetization    =     0.85 Bohr mag/cell

     iteration # 25     ecut=    93.00 Ry     beta= 0.50
     Davidson diagonalization with overlap

---- Real-time Memory Report at c_bands before calling an iterative solver
           109 MiB given to the printing process from OS
             0 MiB allocation reported by mallinfo(arena+hblkhd)
          9721 MiB available memory on the node where the printing process lives
------------------
     c_bands:  1 eigenvalues not converged
     c_bands:  1 eigenvalues not converged
     ethr =  7.00E-07,  avg # of iterations =  2.0

     total cpu time spent up to now is      350.8 secs

     total energy              =    -517.48504081 Ry
     estimated scf accuracy    <       0.00129584 Ry

     total magnetization       =     0.80 Bohr mag/cell
     absolute magnetization    =     0.82 Bohr mag/cell

     iteration # 26     ecut=    93.00 Ry     beta= 0.50
     Davidson diagonalization with overlap

---- Real-time Memory Report at c_bands before calling an iterative solver
           109 MiB given to the printing process from OS
             0 MiB allocation reported by mallinfo(arena+hblkhd)
          9713 MiB available memory on the node where the printing process lives
------------------
     ethr =  7.00E-07,  avg # of iterations =  1.1

     total cpu time spent up to now is      358.4 secs

     total energy              =    -517.48507909 Ry
     estimated scf accuracy    <       0.00062362 Ry

     total magnetization       =     0.95 Bohr mag/cell
     absolute magnetization    =     0.98 Bohr mag/cell

     iteration # 27     ecut=    93.00 Ry     beta= 0.50
     Davidson diagonalization with overlap

---- Real-time Memory Report at c_bands before calling an iterative solver
           109 MiB given to the printing process from OS
             0 MiB allocation reported by mallinfo(arena+hblkhd)
          9717 MiB available memory on the node where the printing process lives
------------------
     c_bands:  1 eigenvalues not converged
     ethr =  7.00E-07,  avg # of iterations =  7.0

     total cpu time spent up to now is      368.9 secs

     total energy              =    -517.48512578 Ry
     estimated scf accuracy    <       0.00000576 Ry

     total magnetization       =     0.92 Bohr mag/cell
     absolute magnetization    =     0.94 Bohr mag/cell

     iteration # 28     ecut=    93.00 Ry     beta= 0.50
     Davidson diagonalization with overlap

---- Real-time Memory Report at c_bands before calling an iterative solver
           109 MiB given to the printing process from OS
             0 MiB allocation reported by mallinfo(arena+hblkhd)
          9717 MiB available memory on the node where the printing process lives
------------------
     c_bands:  1 eigenvalues not converged
     c_bands:  4 eigenvalues not converged
     c_bands:  4 eigenvalues not converged
     c_bands:  5 eigenvalues not converged
     c_bands:  3 eigenvalues not converged
     c_bands:  4 eigenvalues not converged
     c_bands:  4 eigenvalues not converged
     c_bands:  3 eigenvalues not converged
     c_bands:  2 eigenvalues not converged
     c_bands:  4 eigenvalues not converged
     c_bands:  5 eigenvalues not converged
     c_bands:  5 eigenvalues not converged
     c_bands:  4 eigenvalues not converged
     c_bands:  5 eigenvalues not converged
     c_bands:  4 eigenvalues not converged
     c_bands:  5 eigenvalues not converged
     c_bands:  3 eigenvalues not converged
     c_bands:  2 eigenvalues not converged
     c_bands:  2 eigenvalues not converged
     c_bands:  5 eigenvalues not converged
     c_bands:  4 eigenvalues not converged
     c_bands:  4 eigenvalues not converged
     c_bands:  4 eigenvalues not converged
     c_bands:  5 eigenvalues not converged
     c_bands:  2 eigenvalues not converged
     c_bands:  5 eigenvalues not converged
     c_bands:  5 eigenvalues not converged
     c_bands:  4 eigenvalues not converged
     c_bands:  5 eigenvalues not converged
     c_bands:  3 eigenvalues not converged
     c_bands:  2 eigenvalues not converged
     c_bands:  2 eigenvalues not converged
     c_bands:  3 eigenvalues not converged
     c_bands:  2 eigenvalues not converged
     c_bands:  1 eigenvalues not converged
     c_bands:  2 eigenvalues not converged
     c_bands:  3 eigenvalues not converged
     c_bands:  2 eigenvalues not converged
     c_bands:  2 eigenvalues not converged
     c_bands:  2 eigenvalues not converged
     c_bands:  2 eigenvalues not converged
     c_bands:  4 eigenvalues not converged
     c_bands:  5 eigenvalues not converged
     c_bands:  4 eigenvalues not converged
     c_bands:  4 eigenvalues not converged
     c_bands:  4 eigenvalues not converged
     c_bands:  4 eigenvalues not converged
     c_bands:  3 eigenvalues not converged
     c_bands:  1 eigenvalues not converged
     c_bands:  2 eigenvalues not converged
     c_bands:  5 eigenvalues not converged
     c_bands:  2 eigenvalues not converged
     c_bands:  5 eigenvalues not converged
     c_bands:  5 eigenvalues not converged
     c_bands:  5 eigenvalues not converged
     c_bands:  2 eigenvalues not converged
     c_bands:  4 eigenvalues not converged
     c_bands:  4 eigenvalues not converged
     c_bands:  3 eigenvalues not converged
     c_bands:  1 eigenvalues not converged
     c_bands:  3 eigenvalues not converged
     c_bands:  2 eigenvalues not converged
     c_bands:  1 eigenvalues not converged
     ethr =  1.03E-08,  avg # of iterations = 19.7

     total cpu time spent up to now is      396.8 secs

     total energy              =    -517.48511990 Ry
     estimated scf accuracy    <       0.00015129 Ry

     total magnetization       =     0.89 Bohr mag/cell
     absolute magnetization    =     0.91 Bohr mag/cell

     iteration # 29     ecut=    93.00 Ry     beta= 0.50
     Davidson diagonalization with overlap

---- Real-time Memory Report at c_bands before calling an iterative solver
           109 MiB given to the printing process from OS
             0 MiB allocation reported by mallinfo(arena+hblkhd)
          9722 MiB available memory on the node where the printing process lives
------------------
     c_bands:  1 eigenvalues not converged
     c_bands:  2 eigenvalues not converged
     c_bands:  1 eigenvalues not converged
     c_bands:  2 eigenvalues not converged
     c_bands:  2 eigenvalues not converged
     c_bands:  1 eigenvalues not converged
     c_bands:  2 eigenvalues not converged
     c_bands:  3 eigenvalues not converged
     c_bands:  2 eigenvalues not converged
     c_bands:  3 eigenvalues not converged
     c_bands:  3 eigenvalues not converged
     c_bands:  2 eigenvalues not converged
     c_bands:  4 eigenvalues not converged
     c_bands:  1 eigenvalues not converged
     c_bands:  2 eigenvalues not converged
     c_bands:  1 eigenvalues not converged
     c_bands:  2 eigenvalues not converged
     c_bands:  2 eigenvalues not converged
     c_bands:  3 eigenvalues not converged
     c_bands:  2 eigenvalues not converged
     c_bands:  3 eigenvalues not converged
     c_bands:  2 eigenvalues not converged
     c_bands:  1 eigenvalues not converged
     c_bands:  1 eigenvalues not converged
     c_bands:  2 eigenvalues not converged
     c_bands:  4 eigenvalues not converged
     c_bands:  1 eigenvalues not converged
     c_bands:  2 eigenvalues not converged
     c_bands:  1 eigenvalues not converged
     c_bands:  4 eigenvalues not converged
     c_bands:  1 eigenvalues not converged
     c_bands:  2 eigenvalues not converged
     c_bands:  1 eigenvalues not converged
     c_bands:  5 eigenvalues not converged
     c_bands:  2 eigenvalues not converged
     c_bands:  4 eigenvalues not converged
     c_bands:  3 eigenvalues not converged
     c_bands:  1 eigenvalues not converged
     c_bands:  5 eigenvalues not converged
     c_bands:  1 eigenvalues not converged
     c_bands:  2 eigenvalues not converged
     c_bands:  4 eigenvalues not converged
     c_bands:  3 eigenvalues not converged
     c_bands:  5 eigenvalues not converged
     c_bands:  4 eigenvalues not converged
     c_bands:  1 eigenvalues not converged
     c_bands:  4 eigenvalues not converged
     c_bands:  4 eigenvalues not converged
     c_bands:  3 eigenvalues not converged
     c_bands:  3 eigenvalues not converged
     c_bands:  3 eigenvalues not converged
     c_bands:  1 eigenvalues not converged
     c_bands:  3 eigenvalues not converged
     c_bands:  1 eigenvalues not converged
     ethr =  1.03E-08,  avg # of iterations = 19.9

     total cpu time spent up to now is      423.8 secs

     total energy              =    -517.48517010 Ry
     estimated scf accuracy    <       0.00004310 Ry

     total magnetization       =     0.78 Bohr mag/cell
     absolute magnetization    =     0.80 Bohr mag/cell

     iteration # 30     ecut=    93.00 Ry     beta= 0.50
     Davidson diagonalization with overlap

---- Real-time Memory Report at c_bands before calling an iterative solver
           109 MiB given to the printing process from OS
             0 MiB allocation reported by mallinfo(arena+hblkhd)
          9725 MiB available memory on the node where the printing process lives
------------------
     c_bands:  1 eigenvalues not converged
     c_bands:  1 eigenvalues not converged
     c_bands:  1 eigenvalues not converged
     c_bands:  2 eigenvalues not converged
     c_bands:  2 eigenvalues not converged
     c_bands:  1 eigenvalues not converged
     c_bands:  2 eigenvalues not converged
     c_bands:  1 eigenvalues not converged
     c_bands:  2 eigenvalues not converged
     c_bands:  1 eigenvalues not converged
     c_bands:  1 eigenvalues not converged
     c_bands:  1 eigenvalues not converged
     c_bands:  1 eigenvalues not converged
     c_bands:  2 eigenvalues not converged
     c_bands:  1 eigenvalues not converged
     c_bands:  2 eigenvalues not converged
     c_bands:  2 eigenvalues not converged
     c_bands:  1 eigenvalues not converged
     c_bands:  2 eigenvalues not converged
     c_bands:  1 eigenvalues not converged
     c_bands:  1 eigenvalues not converged
     c_bands:  1 eigenvalues not converged
     c_bands:  2 eigenvalues not converged
     c_bands:  2 eigenvalues not converged
     c_bands:  1 eigenvalues not converged
     c_bands:  2 eigenvalues not converged
     c_bands:  1 eigenvalues not converged
     c_bands:  2 eigenvalues not converged
     c_bands:  2 eigenvalues not converged
     c_bands:  1 eigenvalues not converged
     c_bands:  2 eigenvalues not converged
     c_bands:  2 eigenvalues not converged
     c_bands:  2 eigenvalues not converged
     c_bands:  1 eigenvalues not converged
     c_bands:  2 eigenvalues not converged
     c_bands:  1 eigenvalues not converged
     ethr =  1.03E-08,  avg # of iterations = 15.3

     total cpu time spent up to now is      440.4 secs

     total energy              =    -517.48504553 Ry
     estimated scf accuracy    <       0.00000329 Ry

     total magnetization       =     0.81 Bohr mag/cell
     absolute magnetization    =     0.83 Bohr mag/cell

     iteration # 31     ecut=    93.00 Ry     beta= 0.50
     Davidson diagonalization with overlap

---- Real-time Memory Report at c_bands before calling an iterative solver
           109 MiB given to the printing process from OS
             0 MiB allocation reported by mallinfo(arena+hblkhd)
          9723 MiB available memory on the node where the printing process lives
------------------
     c_bands:  2 eigenvalues not converged
     c_bands:  4 eigenvalues not converged
     c_bands:  3 eigenvalues not converged
     c_bands:  1 eigenvalues not converged
     c_bands:  2 eigenvalues not converged
     c_bands:  5 eigenvalues not converged
     c_bands:  1 eigenvalues not converged
     c_bands:  2 eigenvalues not converged
     c_bands:  3 eigenvalues not converged
     c_bands:  5 eigenvalues not converged
     c_bands:  2 eigenvalues not converged
     c_bands:  5 eigenvalues not converged
     c_bands:  1 eigenvalues not converged
     c_bands:  5 eigenvalues not converged
     c_bands:  3 eigenvalues not converged
     c_bands:  3 eigenvalues not converged
     c_bands:  5 eigenvalues not converged
     c_bands:  4 eigenvalues not converged
     c_bands:  4 eigenvalues not converged
     c_bands:  3 eigenvalues not converged
     c_bands:  4 eigenvalues not converged
     c_bands:  2 eigenvalues not converged
     c_bands:  4 eigenvalues not converged
     c_bands:  5 eigenvalues not converged
     c_bands:  5 eigenvalues not converged
     c_bands:  5 eigenvalues not converged
     c_bands:  2 eigenvalues not converged
     c_bands:  5 eigenvalues not converged
     c_bands:  1 eigenvalues not converged
     c_bands:  4 eigenvalues not converged
     c_bands:  1 eigenvalues not converged
     c_bands:  3 eigenvalues not converged
     c_bands:  2 eigenvalues not converged
     c_bands:  3 eigenvalues not converged
     c_bands:  1 eigenvalues not converged
     c_bands:  2 eigenvalues not converged
     c_bands:  4 eigenvalues not converged
     c_bands:  5 eigenvalues not converged
     c_bands:  4 eigenvalues not converged
     c_bands:  3 eigenvalues not converged
     c_bands:  3 eigenvalues not converged
     c_bands:  2 eigenvalues not converged
     c_bands:  2 eigenvalues not converged
     c_bands:  5 eigenvalues not converged
     c_bands:  2 eigenvalues not converged
     c_bands:  5 eigenvalues not converged
     c_bands:  5 eigenvalues not converged
     c_bands:  5 eigenvalues not converged
     c_bands:  3 eigenvalues not converged
     c_bands:  5 eigenvalues not converged
     c_bands:  5 eigenvalues not converged
     c_bands:  5 eigenvalues not converged
     c_bands:  2 eigenvalues not converged
     c_bands:  5 eigenvalues not converged
     c_bands:  1 eigenvalues not converged
     ethr =  5.87E-09,  avg # of iterations = 25.5

     total cpu time spent up to now is      478.1 secs

     total energy              =    -517.48515688 Ry
     estimated scf accuracy    <       0.00206509 Ry

     total magnetization       =     0.97 Bohr mag/cell
     absolute magnetization    =     0.99 Bohr mag/cell

     iteration # 32     ecut=    93.00 Ry     beta= 0.50
     Davidson diagonalization with overlap

---- Real-time Memory Report at c_bands before calling an iterative solver
           110 MiB given to the printing process from OS
             0 MiB allocation reported by mallinfo(arena+hblkhd)
          9718 MiB available memory on the node where the printing process lives
------------------
     c_bands:  1 eigenvalues not converged
     c_bands:  1 eigenvalues not converged
     c_bands:  2 eigenvalues not converged
     c_bands:  2 eigenvalues not converged
     c_bands:  2 eigenvalues not converged
     c_bands:  2 eigenvalues not converged
     c_bands:  2 eigenvalues not converged
     c_bands:  2 eigenvalues not converged
     c_bands:  1 eigenvalues not converged
     c_bands:  1 eigenvalues not converged
     c_bands:  2 eigenvalues not converged
     c_bands:  4 eigenvalues not converged
     c_bands:  2 eigenvalues not converged
     c_bands:  2 eigenvalues not converged
     c_bands:  2 eigenvalues not converged
     c_bands:  3 eigenvalues not converged
     c_bands:  1 eigenvalues not converged
     c_bands:  3 eigenvalues not converged
     c_bands:  1 eigenvalues not converged
     c_bands:  2 eigenvalues not converged
     c_bands:  3 eigenvalues not converged
     c_bands:  2 eigenvalues not converged
     c_bands:  2 eigenvalues not converged
     c_bands:  4 eigenvalues not converged
     c_bands:  2 eigenvalues not converged
     c_bands:  2 eigenvalues not converged
     c_bands:  4 eigenvalues not converged
     c_bands:  4 eigenvalues not converged
     c_bands:  3 eigenvalues not converged
     c_bands:  4 eigenvalues not converged
     c_bands:  5 eigenvalues not converged
     c_bands:  4 eigenvalues not converged
     c_bands:  4 eigenvalues not converged
     c_bands:  5 eigenvalues not converged
     c_bands:  5 eigenvalues not converged
     c_bands:  4 eigenvalues not converged
     c_bands:  3 eigenvalues not converged
     c_bands:  5 eigenvalues not converged
     c_bands:  4 eigenvalues not converged
     c_bands:  2 eigenvalues not converged
     c_bands:  5 eigenvalues not converged
[...]
    22.7939  23.1777  23.1785  23.4054  23.4674  23.5215  23.6032  23.6532

     occupation numbers 
     1.0000   1.0000   1.0000   1.0000   1.0000   1.0000   1.0000   1.0000
     1.0000   1.0000   1.0000   1.0000   1.0000   1.0000   1.0000   1.0000
     1.0000   1.0000   1.0000   1.0000   1.0035   1.0035   1.0397   1.0714
     0.9581   0.5885   0.5876   0.3495   0.2933   0.2488   0.1899   0.1588

          k = 0.1250 0.2500 0.3750 (  8916 PWs)   bands (ev):

   -20.3783 -20.1191 -19.9897 -19.9524   2.6221   2.6591   2.8441   3.7529
     3.7587   4.1728   4.9176   5.1927   5.2559   5.4425   5.7470   6.1893
    20.3289  20.5788  20.6815  20.8247  21.6624  22.1689  22.2061  22.4640
    22.6353  22.7703  22.8398  23.0168  23.4986  23.5640  23.5726  23.7397

     occupation numbers 
     1.0000   1.0000   1.0000   1.0000   1.0000   1.0000   1.0000   1.0000
     1.0000   1.0000   1.0000   1.0000   1.0000   1.0000   1.0000   1.0000
     1.0000   1.0000   1.0000   1.0000   1.0109   1.0652   1.0699   1.0802
     1.0421   0.9738   0.9247   0.7629   0.2671   0.2169   0.2107   0.1140

          k = 0.1250 0.2500-0.5000 (  8910 PWs)   bands (ev):

   -20.2541 -20.2456 -19.9746 -19.9665   2.6466   2.6494   3.2295   3.2310
     3.8979   3.9038   5.2478   5.2506   5.3563   5.3609   5.8344   5.8374
    20.8634  20.8655  21.0304  21.0310  21.9913  21.9919  22.1807  22.1820
    22.4109  22.4139  23.0315  23.0329  23.4595  23.4683  23.7453  23.7459

     occupation numbers 
     1.0000   1.0000   1.0000   1.0000   1.0000   1.0000   1.0000   1.0000
     1.0000   1.0000   1.0000   1.0000   1.0000   1.0000   1.0000   1.0000
     1.0001   1.0001   1.0002   1.0002   1.0411   1.0412   1.0667   1.0669
     1.0831   1.0830   0.7477   0.7462   0.3002   0.2925   0.1115   0.1112

          k = 0.1250 0.3750 0.3750 (  8902 PWs)   bands (ev):

   -20.2904 -20.0841 -20.0756 -19.9895   2.5658   2.6542   2.6582   3.2556
     3.9397   4.5976   4.6027   5.4119   5.5203   5.5830   5.5886   6.1889
    20.4843  20.8647  21.2092  21.2101  21.7727  21.7737  22.0625  22.6707
    22.6867  22.6880  22.8335  23.2910  23.4514  23.5095  23.6475  23.6478

     occupation numbers 
     1.0000   1.0000   1.0000   1.0000   1.0000   1.0000   1.0000   1.0000
     1.0000   1.0000   1.0000   1.0000   1.0000   1.0000   1.0000   1.0000
     1.0000   1.0001   1.0007   1.0007   1.0182   1.0182   1.0506   1.0277
     1.0203   1.0197   0.9295   0.4648   0.3073   0.2583   0.1622   0.1620

          k = 0.1250 0.3750-0.5000 (  8900 PWs)   bands (ev):

   -20.1901 -20.1813 -20.0381 -20.0302   2.5535   2.5553   2.8724   2.8725
     4.2458   4.2513   5.0151   5.0200   5.6290   5.6305   5.9618   5.9631
    20.9968  20.9970  21.2113  21.2127  21.7404  21.7406  22.0806  22.0809
    22.8300  22.8334  23.1284  23.1292  23.5391  23.5491  23.5805  23.5841

     occupation numbers 
     1.0000   1.0000   1.0000   1.0000   1.0000   1.0000   1.0000   1.0000
     1.0000   1.0000   1.0000   1.0000   1.0000   1.0000   1.0000   1.0000
     1.0002   1.0002   1.0008   1.0008   1.0158   1.0158   1.0531   1.0532
     0.9322   0.9296   0.6431   0.6422   0.2352   0.2277   0.2052   0.2027

          k = 0.1250-0.5000-0.5000 (  8912 PWs)   bands (ev):

   -20.1223 -20.1057 -20.1057 -20.1057   2.6302   2.6302   2.6332   2.6350
     4.6230   4.6325   4.6325   4.6333   5.8902   5.8902   5.8963   5.8966
    21.1530  21.1531  21.1544  21.1544  21.8468  21.8471  21.8471  21.8485
    23.1511  23.1511  23.1546  23.1561  23.4406  23.4555  23.4555  23.4587

     occupation numbers 
     1.0000   1.0000   1.0000   1.0000   1.0000   1.0000   1.0000   1.0000
     1.0000   1.0000   1.0000   1.0000   1.0000   1.0000   1.0000   1.0000
     1.0005   1.0005   1.0005   1.0005   1.0246   1.0247   1.0247   1.0248
     0.6180   0.6180   0.6141   0.6124   0.3169   0.3037   0.3037   0.3009

          k = 0.2500 0.2500 0.2500 (  8892 PWs)   bands (ev):

   -20.4230 -20.0128 -20.0004 -20.0004   2.4875   2.4875   2.4919   3.7957
     4.4171   4.4263   4.4263   5.2864   5.2864   5.2913   6.2123   6.2123
    20.0790  20.1502  20.1502  20.1509  22.2695  22.2695  22.2705  22.4386
    22.9179  22.9179  22.9206  23.0271  23.5046  23.5046  23.5892  23.5894

     occupation numbers 
     1.0000   1.0000   1.0000   1.0000   1.0000   1.0000   1.0000   1.0000
     1.0000   1.0000   1.0000   1.0000   1.0000   1.0000   1.0000   1.0000
     1.0000   1.0000   1.0000   1.0000   1.0769   1.0769   1.0770   1.0821
     0.8591   0.8591   0.8566   0.7523   0.2622   0.2622   0.1992   0.1991

          k = 0.2500 0.2500 0.3750 (  8908 PWs)   bands (ev):

   -20.3287 -20.1024 -20.0067 -19.9988   2.3675   2.3701   2.5480   3.2364
     4.4232   4.4294   5.0811   5.3934   5.3963   5.4891   5.9886   6.0872
    20.2056  20.5096  20.5913  20.5918  22.1006  22.2482  22.2494  22.3122
    22.6815  22.9633  22.9642  23.0639  23.5340  23.5397  23.6180  23.6529

     occupation numbers 
     1.0000   1.0000   1.0000   1.0000   1.0000   1.0000   1.0000   1.0000
     1.0000   1.0000   1.0000   1.0000   1.0000   1.0000   1.0000   1.0000
     1.0000   1.0000   1.0000   1.0000   1.0559   1.0747   1.0749   1.0804
     1.0228   0.8165   0.8157   0.7133   0.2391   0.2348   0.1803   0.1590

          k = 0.2500 0.2500-0.5000 (  8882 PWs)   bands (ev):

   -20.2205 -20.2119 -20.0062 -19.9982   2.3194   2.3219   2.8033   2.8033
     4.4320   4.4382   5.4273   5.4302   5.6778   5.6779   5.7310   5.7372
    20.5218  20.5237  21.1759  21.1766  21.5898  21.5905  22.0179  22.0189
    22.8390  22.8436  23.1923  23.1942  23.5015  23.5113  23.6718  23.6727

     occupation numbers 
     1.0000   1.0000   1.0000   1.0000   1.0000   1.0000   1.0000   1.0000
     1.0000   1.0000   1.0000   1.0000   1.0000   1.0000   1.0000   1.0000
     1.0000   1.0000   1.0006   1.0006   1.0076   1.0076   1.0446   1.0447
     0.9253   0.9218   0.5723   0.5702   0.2648   0.2568   0.1483   0.1478

          k = 0.2500 0.3750 0.3750 (  8909 PWs)   bands (ev):

   -20.2543 -20.0823 -20.0737 -20.0235   2.1901   2.2876   2.2903   2.7560
     4.6725   5.0443   5.0487   5.5978   5.6229   5.6281   5.8085   6.1099
    20.1353  20.6597  20.7815  20.7816  21.6984  21.6984  21.9391  22.1755
    23.0776  23.0807  23.2781  23.3956  23.4925  23.5166  23.5797  23.5842

     occupation numbers 
     1.0000   1.0000   1.0000   1.0000   1.0000   1.0000   1.0000   1.0000
     1.0000   1.0000   1.0000   1.0000   1.0000   1.0000   1.0000   1.0000
     1.0000   1.0000   1.0000   1.0000   1.0130   1.0130   1.0346   1.0660
     0.6986   0.6953   0.4786   0.3588   0.2721   0.2526   0.2058   0.2027

          k = 0.2500 0.3750-0.5000 (  8908 PWs)   bands (ev):

   -20.1707 -20.1618 -20.0539 -20.0461   2.1581   2.1601   2.4237   2.4246
     4.8845   4.8902   5.5002   5.5035   5.6863   5.6882   5.9172   5.9190
    20.4403  20.4418  20.9812  20.9813  21.4625  21.4633  21.8568  21.8568
    23.2407  23.2468  23.3061  23.3072  23.5168  23.5268  23.5735  23.5736

     occupation numbers 
     1.0000   1.0000   1.0000   1.0000   1.0000   1.0000   1.0000   1.0000
     1.0000   1.0000   1.0000   1.0000   1.0000   1.0000   1.0000   1.0000
     1.0000   1.0000   1.0001   1.0001   1.0038   1.0038   1.0256   1.0256
     0.5190   0.5124   0.4488   0.4477   0.2525   0.2447   0.2101   0.2100

          k = 0.2500-0.5000-0.5000 (  8904 PWs)   bands (ev):

   -20.1202 -20.1036 -20.1036 -20.1036   2.1944   2.1944   2.1954   2.1986
     5.2270   5.2344   5.2344   5.2359   5.8942   5.8942   5.9003   5.9006
    20.6088  20.6103  20.6110  20.6110  21.6686  21.6686  21.6687  21.6701
    23.3958  23.3958  23.4014  23.4041  23.4650  23.4764  23.4764  23.4807

     occupation numbers 
     1.0000   1.0000   1.0000   1.0000   1.0000   1.0000   1.0000   1.0000
     1.0000   1.0000   1.0000   1.0000   1.0000   1.0000   1.0000   1.0000
     1.0000   1.0000   1.0000   1.0000   1.0113   1.0113   1.0113   1.0114
     0.3586   0.3586   0.3532   0.3506   0.2954   0.2856   0.2856   0.2820

          k = 0.3750 0.3750 0.3750 (  8916 PWs)   bands (ev):

   -20.2008 -20.0837 -20.0717 -20.0717   2.0150   2.0150   2.0182   2.3245
     5.3460   5.3543   5.3543   5.7128   5.7128   5.7178   5.9917   5.9917
    19.8142  20.4664  20.4672  20.4672  21.6605  21.6605  21.6614  22.1779
    23.3316  23.3316  23.3360  23.5216  23.5303  23.5303  23.5327  23.5327

     occupation numbers 
     1.0000   1.0000   1.0000   1.0000   1.0000   1.0000   1.0000   1.0000
     1.0000   1.0000   1.0000   1.0000   1.0000   1.0000   1.0000   1.0000
     1.0000   1.0000   1.0000   1.0000   1.0108   1.0108   1.0109   1.0663
     0.4224   0.4224   0.4179   0.2487   0.2420   0.2420   0.2401   0.2401

          k = 0.3750 0.3750-0.5000 (  8908 PWs)   bands (ev):

   -20.1429 -20.1335 -20.0781 -20.0709   1.9175   1.9195   2.0634   2.0650
     5.4274   5.4337   5.7825   5.7850   5.8306   5.8321   5.8498   5.8559
    19.9746  19.9760  20.3577  20.3584  21.6431  21.6439  21.9506  21.9510
    23.4092  23.4106  23.4284  23.4354  23.5039  23.5140  23.5395  23.5407

     occupation numbers 
     1.0000   1.0000   1.0000   1.0000   1.0000   1.0000   1.0000   1.0000
     1.0000   1.0000   1.0000   1.0000   1.0000   1.0000   1.0000   1.0000
     1.0000   1.0000   1.0000   1.0000   1.0100   1.0100   1.0360   1.0360
     0.3459   0.3445   0.3281   0.3217   0.2628   0.2547   0.2349   0.2340

          k = 0.3750-0.5000-0.5000 (  8916 PWs)   bands (ev):

   -20.1181 -20.1014 -20.1014 -20.1014   1.8844   1.8844   1.8846   1.8882
     5.7128   5.7194   5.7194   5.7213   5.8982   5.8982   5.9043   5.9046
    19.9469  19.9491  19.9492  19.9492  21.8843  21.8843  21.8843  21.8858
    23.4761  23.4761  23.4841  23.4842  23.4874  23.4937  23.4937  23.4980

     occupation numbers 
     1.0000   1.0000   1.0000   1.0000   1.0000   1.0000   1.0000   1.0000
     1.0000   1.0000   1.0000   1.0000   1.0000   1.0000   1.0000   1.0000
     1.0000   1.0000   1.0000   1.0000   1.0284   1.0284   1.0284   1.0286
     0.2858   0.2858   0.2791   0.2790   0.2763   0.2711   0.2711   0.2676

          k =-0.5000-0.5000-0.5000 (  9008 PWs)   bands (ev):

   -20.1172 -20.1006 -20.1006 -20.1006   1.7751   1.7751   1.7751   1.7789
     5.8977   5.8977   5.8977   5.9060   5.9060   5.9063   5.9063   5.9063
    19.6931  19.6954  19.6954  19.6954  22.0024  22.0024  22.0024  22.0041
    23.4909  23.4909  23.4909  23.5011  23.5011  23.5011  23.5042  23.5042

     occupation numbers 
     1.0000   1.0000   1.0000   1.0000   1.0000   1.0000   1.0000   1.0000
     1.0000   1.0000   1.0000   1.0000   1.0000   1.0000   1.0000   1.0000
     1.0000   1.0000   1.0000   1.0000   1.0425   1.0425   1.0425   1.0428
     0.2735   0.2735   0.2735   0.2651   0.2651   0.2651   0.2626   0.2626

     the Fermi energy is    23.3530 ev

!    total energy              =    -517.48518692 Ry
     estimated scf accuracy    <          4.2E-10 Ry
     smearing contrib. (-TS)   =      -0.04558874 Ry
     internal energy E=F+TS    =    -517.43959818 Ry

     The total energy is F=E-TS. E is the sum of the following terms:
     one-electron contribution =      40.81956413 Ry
     hartree contribution      =      37.37698234 Ry
     xc contribution           =    -166.58101579 Ry
     ewald contribution        =    -429.05512886 Ry

     total magnetization       =     0.33 Bohr mag/cell
     absolute magnetization    =     0.34 Bohr mag/cell

     convergence has been achieved in  72 iterations

     Forces acting on atoms (cartesian axes, Ry/au):

     atom    1 type  1   force =     0.00000000    0.00000000    0.00000000
     atom    2 type  1   force =     0.00000000    0.00000000    0.00000000
     atom    3 type  1   force =     0.00000000    0.00000000    0.00000000
     atom    4 type  1   force =     0.00000000    0.00000000    0.00000000
     The non-local contrib.  to forces
     atom    1 type  1   force =     0.00000000    0.00000000    0.00000000
     atom    2 type  1   force =     0.00000000    0.00000000    0.00000000
     atom    3 type  1   force =     0.00000000    0.00000000    0.00000000
     atom    4 type  1   force =     0.00000000    0.00000000    0.00000000
     The ionic contribution  to forces
     atom    1 type  1   force =    -0.00000000   -0.00000000   -0.00000000
     atom    2 type  1   force =     0.00000000    0.00000000   -0.00000000
     atom    3 type  1   force =     0.00000000   -0.00000000    0.00000000
     atom    4 type  1   force =    -0.00000000    0.00000000    0.00000000
     The local contribution  to forces
     atom    1 type  1   force =     0.00000000    0.00000000    0.00000000
     atom    2 type  1   force =     0.00000000    0.00000000    0.00000000
     atom    3 type  1   force =     0.00000000    0.00000000    0.00000000
     atom    4 type  1   force =     0.00000000    0.00000000    0.00000000
     The core correction contribution to forces
     atom    1 type  1   force =     0.00000000    0.00000000    0.00000000
     atom    2 type  1   force =    -0.00000000   -0.00000000    0.00000000
     atom    3 type  1   force =    -0.00000000    0.00000000   -0.00000000
     atom    4 type  1   force =     0.00000000    0.00000000    0.00000000
     The Hubbard contrib.    to forces
     atom    1 type  1   force =     0.00000000    0.00000000    0.00000000
     atom    2 type  1   force =     0.00000000    0.00000000    0.00000000
     atom    3 type  1   force =     0.00000000    0.00000000    0.00000000
     atom    4 type  1   force =     0.00000000    0.00000000    0.00000000
     The SCF correction term to forces
     atom    1 type  1   force =     0.00000000    0.00000000   -0.00000000
     atom    2 type  1   force =    -0.00000000   -0.00000000   -0.00000000
     atom    3 type  1   force =     0.00000000   -0.00000000   -0.00000000
     atom    4 type  1   force =     0.00000000    0.00000000   -0.00000000

     Total force =     0.000000     Total SCF correction =     0.000000


     Computing stress (Cartesian axis) and pressure

          total   stress  (Ry/bohr**3)                   (kbar)     P=       -3.02
  -0.00002054   0.00000000   0.00000000           -3.02        0.00        0.00
   0.00000000  -0.00002054   0.00000000            0.00       -3.02        0.00
   0.00000000   0.00000000  -0.00002054            0.00        0.00       -3.02

     kinetic stress (kbar)  31249.66      0.00      0.00
                                0.00  31249.65      0.00
                                0.00      0.00  31249.65

     local   stress (kbar)   8432.41      0.00      0.00
                                0.00   8432.41     -0.00
                                0.00     -0.00   8432.41

     nonloc. stress (kbar)   -498.22      0.00      0.00
                                0.00   -498.22      0.00
                                0.00      0.00   -498.22

     hartree stress (kbar)   3116.90     -0.00     -0.00
                               -0.00   3116.90      0.00
                               -0.00      0.00   3116.90

     exc-cor stress (kbar)  21052.79     -0.00     -0.00
                               -0.00  21052.79      0.00
                               -0.00      0.00  21052.79

     corecor stress (kbar) -27577.26     -0.00      0.00
                               -0.00 -27577.26     -0.00
                                0.00     -0.00 -27577.26

     ewald   stress (kbar) -35779.30      0.00     -0.00
                                0.00 -35779.30     -0.00
                               -0.00     -0.00 -35779.30

     hubbard stress (kbar)      0.00      0.00      0.00
                                0.00      0.00      0.00
                                0.00      0.00      0.00

     DFT-D   stress (kbar)      0.00      0.00      0.00
                                0.00      0.00      0.00
                                0.00      0.00      0.00

     XDM     stress (kbar)      0.00      0.00      0.00
                                0.00      0.00      0.00
                                0.00      0.00      0.00

     dft-nl  stress (kbar)      0.00      0.00      0.00
                                0.00      0.00      0.00
                                0.00      0.00      0.00

     TS-vdW  stress (kbar)      0.00      0.00      0.00
                                0.00      0.00      0.00
                                0.00      0.00      0.00


                                0.00      0.00      0.00
                                0.00      0.00      0.00


                                0.00      0.00      0.00


     Writing output data file ./Uranium.save/

     init_run     :      3.75s CPU      3.91s WALL (       1 calls)
     electrons    :   1643.87s CPU   1670.58s WALL (       1 calls)
     forces       :      2.92s CPU      3.01s WALL (       1 calls)
     stress       :      4.69s CPU      4.85s WALL (       1 calls)

     Called by init_run:
     wfcinit      :      2.58s CPU      2.67s WALL (       1 calls)
     wfcinit:wfcr :      2.42s CPU      2.51s WALL (      70 calls)
     potinit      :      0.25s CPU      0.25s WALL (       1 calls)
     hinit0       :      0.47s CPU      0.49s WALL (       1 calls)

     Called by electrons:
     c_bands      :   1521.13s CPU   1539.43s WALL (      72 calls)
     sum_band     :     95.64s CPU    100.44s WALL (      72 calls)
     v_of_rho     :      5.72s CPU      5.76s WALL (      73 calls)
     v_h          :      0.13s CPU      0.13s WALL (      73 calls)
     v_xc         :      5.75s CPU      5.79s WALL (      75 calls)
     newd         :     20.73s CPU     24.18s WALL (      73 calls)
     mix_rho      :      0.62s CPU      0.64s WALL (      72 calls)

     Called by c_bands:
     init_us_2    :      5.35s CPU      5.51s WALL (   10290 calls)
     cegterg      :   1494.46s CPU   1512.40s WALL (    5632 calls)

     Called by sum_band:
     sum_band:wei :      0.55s CPU      0.56s WALL (      72 calls)
     sum_band:loo :     66.36s CPU     67.51s WALL (      72 calls)
     sum_band:buf :      0.24s CPU      0.24s WALL (    5040 calls)
     sum_band:ini :      2.42s CPU      2.45s WALL (    5040 calls)
     sum_band:cal :     20.37s CPU     20.59s WALL (    5040 calls)
     sum_band:bec :      3.33s CPU      3.36s WALL (    5040 calls)
     addusdens    :     26.94s CPU     30.48s WALL (      72 calls)
     addusd:skk   :      0.02s CPU      0.02s WALL (      72 calls)
     addusd:dgemm :      7.49s CPU     10.31s WALL (     144 calls)
     addusd:qvan2 :     17.95s CPU     18.01s WALL (     144 calls)

     Called by *egterg:
     cdiaghg      :    316.18s CPU    317.93s WALL (   87890 calls)
     cegterg:over :    106.67s CPU    108.07s WALL (   82258 calls)
     cegterg:upda :     36.84s CPU     37.10s WALL (   82258 calls)
     cegterg:last :    133.38s CPU    133.95s WALL (   28217 calls)
     h_psi        :    739.57s CPU    752.45s WALL (   87960 calls)
     s_psi        :    126.21s CPU    127.06s WALL (   87960 calls)
     g_psi        :      2.29s CPU      2.32s WALL (   82258 calls)

     Called by h_psi:
     h_psi:calbec :    128.33s CPU    130.04s WALL (   87960 calls)
     vloc_psi     :    483.55s CPU    493.98s WALL (   87960 calls)
     add_vuspsi   :    126.12s CPU    126.88s WALL (   87960 calls)

     General routines
     calbec       :    150.38s CPU    152.40s WALL (   93350 calls)
     fft          :      2.39s CPU      2.42s WALL (    1863 calls)
     ffts         :      0.13s CPU      0.13s WALL (     290 calls)
     fftw         :    496.25s CPU    506.94s WALL ( 2065030 calls)
     interpolate  :      0.26s CPU      0.27s WALL (     146 calls)

     Parallel routines

     PWSCF        :  27m37.00s CPU  28m 9.52s WALL


   This run was terminated on:  20: 6:24   5Dec2021            

=------------------------------------------------------------------------------=
   JOB DONE.
=------------------------------------------------------------------------------=
