
     Program PWSCF v.6.8 starts on  9Dec2021 at  3:44:29 

     This program is part of the open-source Quantum ESPRESSO suite
     for quantum simulation of materials; please cite
         "P. Giannozzi et al., J. Phys.:Condens. Matter 21 395502 (2009);
         "P. Giannozzi et al., J. Phys.:Condens. Matter 29 465901 (2017);
         "P. Giannozzi et al., J. Chem. Phys. 152 154105 (2020);
          URL http://www.quantum-espresso.org", 
     in publications or presentations arising from this work. More details at
     http://www.quantum-espresso.org/quote

     Parallel version (MPI), running on    32 processors

     MPI processes distributed on     1 nodes
     R & G space division:  proc/nbgrp/npool/nimage =      32
     28057 MiB available memory on the printing compute node when the environment starts

     Reading input from runu.in
Warning: card &CELL ignored
Warning: card    CELL_DYNAMICS = 'BFGS' , ignored
Warning: card    CELL_DOFREE = 'ALL', ignored
Warning: card    PRESS_CONV_THR = 0.5 , ! THIS IS THE DEFAULT ignored
Warning: card  / ignored

     Current dimensions of program PWSCF are:
     Max number of different atomic species (ntypx) = 10
     Max number of k-points (npk) =  40000
     Max angular momentum in pseudopotentials (lmaxx) =  4
     file U.pbe-spfn-rrkjus_psl.1.0.0.UPF: wavefunction(s)  5F renormalized
     Found symmetry operation: I + ( -0.5000  0.5000  0.0000)
     This is a supercell, fractional translations are disabled
     Message from routine setup:
     using ibrav=0 with symmetry is DISCOURAGED, use correct ibrav instead

     Subspace diagonalization in iterative solution of the eigenvalue problem:
     a serial algorithm will be used


     Parallelization info
     --------------------
     sticks:   dense  smooth     PW     G-vecs:    dense   smooth      PW
     Min         167      83     23                 9189     3247     483
     Max         168      84     24                 9192     3252     488
     Sum        5365    2685    749               294107   103999   15515

     Using Slab Decomposition



     bravais-lattice index     =            0
     lattice parameter (alat)  =       8.3822  a.u.
     unit-cell volume          =     585.4296 (a.u.)^3
     number of atoms/cell      =            4
     number of atomic types    =            1
     number of electrons       =        56.00
     number of Kohn-Sham states=           32
     kinetic-energy cutoff     =     120.0000  Ry
     charge density cutoff     =     960.0000  Ry
     scf convergence threshold =      1.0E-08
     mixing beta               =       0.5000
     number of iterations used =            8  plain     mixing
     Exchange-correlation= PBE
                           (   1   4   3   4   0   0   0)

     celldm(1)=   8.382216  celldm(2)=   0.000000  celldm(3)=   0.000000
     celldm(4)=   0.000000  celldm(5)=   0.000000  celldm(6)=   0.000000

     crystal axes: (cart. coord. in units of alat)
               a(1) = (   1.000000   0.000000   0.000000 )  
               a(2) = (   0.000000   0.997009   0.000000 )  
               a(3) = (   0.000000   0.000000   0.997009 )  

     reciprocal axes: (cart. coord. in units 2 pi/alat)
               b(1) = (  1.000000  0.000000  0.000000 )  
               b(2) = (  0.000000  1.003000  0.000000 )  
               b(3) = (  0.000000  0.000000  1.003000 )  


     PseudoPot. # 1 for U  read from file:
     /home/myhawary/QE/runs/pseudo/U.pbe-spfn-rrkjus_psl.1.0.0.UPF
     MD5 check sum: b50a7459bb2a1ad67e79ea3a31ec714c
     Pseudo is Ultrasoft + core correction, Zval = 14.0
     Generated using &quot;atomic&quot; code by A. Dal Corso  v.6.2.2
     Using radial grid of 1291 points,  8 beta functions with: 
                l(1) =   0
                l(2) =   0
                l(3) =   1
                l(4) =   1
                l(5) =   2
                l(6) =   2
                l(7) =   3
                l(8) =   3
     Q(r) pseudized with 0 coefficients 


     atomic species   valence    mass     pseudopotential
        U             14.00   238.00000     U ( 1.00)

     Starting magnetic structure 
     atomic species   magnetization
        U            0.100

     16 Sym. Ops., with inversion, found


                                    s                        frac. trans.

      isym =  1     identity                                     

 cryst.   s( 1) = (     1          0          0      )
                  (     0          1          0      )
                  (     0          0          1      )

 cart.    s( 1) = (  1.0000000  0.0000000  0.0000000 )
                  (  0.0000000  1.0000000  0.0000000 )
                  (  0.0000000  0.0000000  1.0000000 )


      isym =  2     180 deg rotation - cart. axis [0,0,1]        

 cryst.   s( 2) = (    -1          0          0      )
                  (     0         -1          0      )
                  (     0          0          1      )

 cart.    s( 2) = ( -1.0000000  0.0000000  0.0000000 )
                  (  0.0000000 -1.0000000  0.0000000 )
                  (  0.0000000  0.0000000  1.0000000 )


      isym =  3     180 deg rotation - cart. axis [0,1,0]        

 cryst.   s( 3) = (    -1          0          0      )
                  (     0          1          0      )
                  (     0          0         -1      )

 cart.    s( 3) = ( -1.0000000  0.0000000  0.0000000 )
                  (  0.0000000  1.0000000  0.0000000 )
                  (  0.0000000  0.0000000 -1.0000000 )


      isym =  4     180 deg rotation - cart. axis [1,0,0]        

 cryst.   s( 4) = (     1          0          0      )
                  (     0         -1          0      )
                  (     0          0         -1      )

 cart.    s( 4) = (  1.0000000  0.0000000  0.0000000 )
                  (  0.0000000 -1.0000000  0.0000000 )
                  (  0.0000000  0.0000000 -1.0000000 )


      isym =  5     180 deg rotation - cart. axis [0,1,1]        

 cryst.   s( 5) = (    -1          0          0      )
                  (     0          0          1      )
                  (     0          1          0      )

 cart.    s( 5) = ( -1.0000000  0.0000000  0.0000000 )
                  (  0.0000000  0.0000000  1.0000000 )
                  (  0.0000000  1.0000000  0.0000000 )


      isym =  6     180 deg rotation - cart. axis [0,1,-1]       

 cryst.   s( 6) = (    -1          0          0      )
                  (     0          0         -1      )
                  (     0         -1          0      )

 cart.    s( 6) = ( -1.0000000  0.0000000  0.0000000 )
                  (  0.0000000  0.0000000 -1.0000000 )
                  (  0.0000000 -1.0000000  0.0000000 )


      isym =  7      90 deg rotation - cart. axis [-1,0,0]       

 cryst.   s( 7) = (     1          0          0      )
                  (     0          0         -1      )
                  (     0          1          0      )

 cart.    s( 7) = (  1.0000000  0.0000000  0.0000000 )
                  (  0.0000000  0.0000000  1.0000000 )
                  (  0.0000000 -1.0000000  0.0000000 )


      isym =  8      90 deg rotation - cart. axis [1,0,0]        

 cryst.   s( 8) = (     1          0          0      )
                  (     0          0          1      )
                  (     0         -1          0      )

 cart.    s( 8) = (  1.0000000  0.0000000  0.0000000 )
                  (  0.0000000  0.0000000 -1.0000000 )
                  (  0.0000000  1.0000000  0.0000000 )


      isym =  9     inversion                                    

 cryst.   s( 9) = (    -1          0          0      )
                  (     0         -1          0      )
                  (     0          0         -1      )

 cart.    s( 9) = ( -1.0000000  0.0000000  0.0000000 )
                  (  0.0000000 -1.0000000  0.0000000 )
                  (  0.0000000  0.0000000 -1.0000000 )


      isym = 10     inv. 180 deg rotation - cart. axis [0,0,1]   

 cryst.   s(10) = (     1          0          0      )
                  (     0          1          0      )
                  (     0          0         -1      )

 cart.    s(10) = (  1.0000000  0.0000000  0.0000000 )
                  (  0.0000000  1.0000000  0.0000000 )
                  (  0.0000000  0.0000000 -1.0000000 )


      isym = 11     inv. 180 deg rotation - cart. axis [0,1,0]   

 cryst.   s(11) = (     1          0          0      )
                  (     0         -1          0      )
                  (     0          0          1      )

 cart.    s(11) = (  1.0000000  0.0000000  0.0000000 )
                  (  0.0000000 -1.0000000  0.0000000 )
                  (  0.0000000  0.0000000  1.0000000 )


      isym = 12     inv. 180 deg rotation - cart. axis [1,0,0]   

 cryst.   s(12) = (    -1          0          0      )
                  (     0          1          0      )
                  (     0          0          1      )

 cart.    s(12) = ( -1.0000000  0.0000000  0.0000000 )
                  (  0.0000000  1.0000000  0.0000000 )
                  (  0.0000000  0.0000000  1.0000000 )


      isym = 13     inv. 180 deg rotation - cart. axis [0,1,1]   

 cryst.   s(13) = (     1          0          0      )
                  (     0          0         -1      )
                  (     0         -1          0      )

 cart.    s(13) = (  1.0000000  0.0000000  0.0000000 )
                  (  0.0000000  0.0000000 -1.0000000 )
                  (  0.0000000 -1.0000000  0.0000000 )


      isym = 14     inv. 180 deg rotation - cart. axis [0,1,-1]  

 cryst.   s(14) = (     1          0          0      )
                  (     0          0          1      )
                  (     0          1          0      )

 cart.    s(14) = (  1.0000000  0.0000000  0.0000000 )
                  (  0.0000000  0.0000000  1.0000000 )
                  (  0.0000000  1.0000000  0.0000000 )


      isym = 15     inv.  90 deg rotation - cart. axis [-1,0,0]  

 cryst.   s(15) = (    -1          0          0      )
                  (     0          0          1      )
                  (     0         -1          0      )

 cart.    s(15) = ( -1.0000000  0.0000000  0.0000000 )
                  (  0.0000000  0.0000000 -1.0000000 )
                  (  0.0000000  1.0000000  0.0000000 )


      isym = 16     inv.  90 deg rotation - cart. axis [1,0,0]   

 cryst.   s(16) = (    -1          0          0      )
                  (     0          0         -1      )
                  (     0          1          0      )

 cart.    s(16) = ( -1.0000000  0.0000000  0.0000000 )
                  (  0.0000000  0.0000000  1.0000000 )
                  (  0.0000000 -1.0000000  0.0000000 )


   Cartesian axes

     site n.     atom                  positions (alat units)
         1           U   tau(   1) = (   0.0000000   0.0000000   0.0000000  )
         2           U   tau(   2) = (   0.5000000   0.4985045   0.0000000  )
         3           U   tau(   3) = (   0.5000000   0.0000000   0.4985045  )
         4           U   tau(   4) = (   0.0000000   0.4985045   0.4985045  )

   Crystallographic axes

     site n.     atom                  positions (cryst. coord.)
         1           U   tau(   1) = (  0.0000000  0.0000000  0.0000000  )
         2           U   tau(   2) = (  0.5000000  0.5000000  0.0000000  )
         3           U   tau(   3) = (  0.5000000  0.0000000  0.5000000  )
         4           U   tau(   4) = (  0.0000000  0.5000000  0.5000000  )

     number of k points=    40  Marzari-Vanderbilt smearing, width (Ry)=  0.0500
                       cart. coord. in units 2pi/alat
        k(    1) = (   0.0000000   0.0000000   0.0000000), wk =   0.0046296
        k(    2) = (   0.0000000   0.0000000   0.1671667), wk =   0.0185185
        k(    3) = (   0.0000000   0.0000000   0.3343333), wk =   0.0185185
        k(    4) = (   0.0000000   0.0000000  -0.5015000), wk =   0.0092593
        k(    5) = (   0.0000000   0.1671667   0.1671667), wk =   0.0185185
        k(    6) = (   0.0000000   0.1671667   0.3343333), wk =   0.0370370
        k(    7) = (   0.0000000   0.1671667  -0.5015000), wk =   0.0185185
        k(    8) = (   0.0000000   0.3343333   0.3343333), wk =   0.0185185
        k(    9) = (   0.0000000   0.3343333  -0.5015000), wk =   0.0185185
        k(   10) = (   0.0000000  -0.5015000  -0.5015000), wk =   0.0046296
        k(   11) = (   0.1666667   0.0000000   0.0000000), wk =   0.0092593
        k(   12) = (   0.1666667   0.0000000   0.1671667), wk =   0.0370370
        k(   13) = (   0.1666667   0.0000000   0.3343333), wk =   0.0370370
        k(   14) = (   0.1666667   0.0000000  -0.5015000), wk =   0.0185185
        k(   15) = (   0.1666667   0.1671667   0.1671667), wk =   0.0370370
        k(   16) = (   0.1666667   0.1671667   0.3343333), wk =   0.0740741
        k(   17) = (   0.1666667   0.1671667  -0.5015000), wk =   0.0370370
        k(   18) = (   0.1666667   0.3343333   0.3343333), wk =   0.0370370
        k(   19) = (   0.1666667   0.3343333  -0.5015000), wk =   0.0370370
        k(   20) = (   0.1666667  -0.5015000  -0.5015000), wk =   0.0092593
        k(   21) = (   0.3333333   0.0000000   0.0000000), wk =   0.0092593
        k(   22) = (   0.3333333   0.0000000   0.1671667), wk =   0.0370370
        k(   23) = (   0.3333333   0.0000000   0.3343333), wk =   0.0370370
        k(   24) = (   0.3333333   0.0000000  -0.5015000), wk =   0.0185185
        k(   25) = (   0.3333333   0.1671667   0.1671667), wk =   0.0370370
        k(   26) = (   0.3333333   0.1671667   0.3343333), wk =   0.0740741
        k(   27) = (   0.3333333   0.1671667  -0.5015000), wk =   0.0370370
        k(   28) = (   0.3333333   0.3343333   0.3343333), wk =   0.0370370
        k(   29) = (   0.3333333   0.3343333  -0.5015000), wk =   0.0370370
        k(   30) = (   0.3333333  -0.5015000  -0.5015000), wk =   0.0092593
        k(   31) = (  -0.5000000   0.0000000   0.0000000), wk =   0.0046296
        k(   32) = (  -0.5000000   0.0000000   0.1671667), wk =   0.0185185
        k(   33) = (  -0.5000000   0.0000000   0.3343333), wk =   0.0185185
        k(   34) = (  -0.5000000   0.0000000  -0.5015000), wk =   0.0092593
        k(   35) = (  -0.5000000   0.1671667   0.1671667), wk =   0.0185185
        k(   36) = (  -0.5000000   0.1671667   0.3343333), wk =   0.0370370
        k(   37) = (  -0.5000000   0.1671667  -0.5015000), wk =   0.0185185
        k(   38) = (  -0.5000000   0.3343333   0.3343333), wk =   0.0185185
        k(   39) = (  -0.5000000   0.3343333  -0.5015000), wk =   0.0185185
        k(   40) = (  -0.5000000  -0.5015000  -0.5015000), wk =   0.0046296

                       cryst. coord.
        k(    1) = (   0.0000000   0.0000000   0.0000000), wk =   0.0046296
        k(    2) = (   0.0000000   0.0000000   0.1666667), wk =   0.0185185
        k(    3) = (   0.0000000   0.0000000   0.3333333), wk =   0.0185185
        k(    4) = (   0.0000000   0.0000000  -0.5000000), wk =   0.0092593
        k(    5) = (   0.0000000   0.1666667   0.1666667), wk =   0.0185185
        k(    6) = (   0.0000000   0.1666667   0.3333333), wk =   0.0370370
        k(    7) = (   0.0000000   0.1666667  -0.5000000), wk =   0.0185185
        k(    8) = (   0.0000000   0.3333333   0.3333333), wk =   0.0185185
        k(    9) = (   0.0000000   0.3333333  -0.5000000), wk =   0.0185185
        k(   10) = (   0.0000000  -0.5000000  -0.5000000), wk =   0.0046296
        k(   11) = (   0.1666667   0.0000000   0.0000000), wk =   0.0092593
        k(   12) = (   0.1666667   0.0000000   0.1666667), wk =   0.0370370
        k(   13) = (   0.1666667   0.0000000   0.3333333), wk =   0.0370370
        k(   14) = (   0.1666667   0.0000000  -0.5000000), wk =   0.0185185
        k(   15) = (   0.1666667   0.1666667   0.1666667), wk =   0.0370370
        k(   16) = (   0.1666667   0.1666667   0.3333333), wk =   0.0740741
        k(   17) = (   0.1666667   0.1666667  -0.5000000), wk =   0.0370370
        k(   18) = (   0.1666667   0.3333333   0.3333333), wk =   0.0370370
        k(   19) = (   0.1666667   0.3333333  -0.5000000), wk =   0.0370370
        k(   20) = (   0.1666667  -0.5000000  -0.5000000), wk =   0.0092593
        k(   21) = (   0.3333333   0.0000000   0.0000000), wk =   0.0092593
        k(   22) = (   0.3333333   0.0000000   0.1666667), wk =   0.0370370
        k(   23) = (   0.3333333   0.0000000   0.3333333), wk =   0.0370370
        k(   24) = (   0.3333333   0.0000000  -0.5000000), wk =   0.0185185
        k(   25) = (   0.3333333   0.1666667   0.1666667), wk =   0.0370370
        k(   26) = (   0.3333333   0.1666667   0.3333333), wk =   0.0740741
        k(   27) = (   0.3333333   0.1666667  -0.5000000), wk =   0.0370370
        k(   28) = (   0.3333333   0.3333333   0.3333333), wk =   0.0370370
        k(   29) = (   0.3333333   0.3333333  -0.5000000), wk =   0.0370370
        k(   30) = (   0.3333333  -0.5000000  -0.5000000), wk =   0.0092593
        k(   31) = (  -0.5000000   0.0000000   0.0000000), wk =   0.0046296
        k(   32) = (  -0.5000000   0.0000000   0.1666667), wk =   0.0185185
        k(   33) = (  -0.5000000   0.0000000   0.3333333), wk =   0.0185185
        k(   34) = (  -0.5000000   0.0000000  -0.5000000), wk =   0.0092593
        k(   35) = (  -0.5000000   0.1666667   0.1666667), wk =   0.0185185
        k(   36) = (  -0.5000000   0.1666667   0.3333333), wk =   0.0370370
        k(   37) = (  -0.5000000   0.1666667  -0.5000000), wk =   0.0185185
        k(   38) = (  -0.5000000   0.3333333   0.3333333), wk =   0.0185185
        k(   39) = (  -0.5000000   0.3333333  -0.5000000), wk =   0.0185185
        k(   40) = (  -0.5000000  -0.5000000  -0.5000000), wk =   0.0046296

     Dense  grid:   294107 G-vectors     FFT dimensions: (  90,  90,  90)

     Smooth grid:   103999 G-vectors     FFT dimensions: (  60,  60,  60)

     Dynamical RAM for                 wfc:       0.20 MB

     Dynamical RAM for     wfc (w. buffer):      16.06 MB

     Dynamical RAM for           str. fact:       0.14 MB

     Dynamical RAM for           local pot:       0.00 MB

     Dynamical RAM for          nlocal pot:       0.79 MB

     Dynamical RAM for                qrad:       5.96 MB

     Dynamical RAM for          rho,v,vnew:       1.95 MB

     Dynamical RAM for               rhoin:       0.65 MB

     Dynamical RAM for            rho*nmix:       4.49 MB

     Dynamical RAM for           G-vectors:       0.55 MB

     Dynamical RAM for          h,s,v(r/c):       0.19 MB

     Dynamical RAM for          <psi|beta>:       0.06 MB

     Dynamical RAM for                 psi:       0.40 MB

     Dynamical RAM for                hpsi:       0.40 MB

     Dynamical RAM for                spsi:       0.40 MB

     Dynamical RAM for      wfcinit/wfcrot:       0.42 MB

     Dynamical RAM for           addusdens:      78.54 MB

     Dynamical RAM for          addusforce:      79.48 MB

     Dynamical RAM for         addusstress:      81.84 MB

     Estimated static dynamical RAM per process >      27.50 MB

     Estimated max dynamical RAM per process >     113.83 MB

     Estimated total dynamical RAM >       3.56 GB
     Generating pointlists ...
     new r_m :   0.2908 (alat units)  2.4376 (a.u.) for type    1

     Initial potential from superposition of free atoms

     starting charge   55.98204, renormalised to   56.00000
     Starting wfcs are random

     total cpu time spent up to now is        7.6 secs

     Self-consistent Calculation

     iteration #  1     ecut=   120.00 Ry     beta= 0.50
     Davidson diagonalization with overlap

---- Real-time Memory Report at c_bands before calling an iterative solver
           116 MiB given to the printing process from OS
             0 MiB allocation reported by mallinfo(arena+hblkhd)
         26850 MiB available memory on the node where the printing process lives
------------------
     ethr =  1.00E-02,  avg # of iterations = 11.2

     total cpu time spent up to now is       55.7 secs

     total energy              =    -516.18941536 Ry
     estimated scf accuracy    <       1.75967869 Ry

     total magnetization       =     2.43 Bohr mag/cell
     absolute magnetization    =     2.43 Bohr mag/cell

     iteration #  2     ecut=   120.00 Ry     beta= 0.50
     Davidson diagonalization with overlap

---- Real-time Memory Report at c_bands before calling an iterative solver
           134 MiB given to the printing process from OS
             0 MiB allocation reported by mallinfo(arena+hblkhd)
         26621 MiB available memory on the node where the printing process lives
------------------
     ethr =  3.14E-03,  avg # of iterations =  7.1

     total cpu time spent up to now is       85.4 secs

     total energy              =    -517.14177076 Ry
     estimated scf accuracy    <       1.57255532 Ry

     total magnetization       =     2.77 Bohr mag/cell
     absolute magnetization    =     2.77 Bohr mag/cell

     iteration #  3     ecut=   120.00 Ry     beta= 0.50
     Davidson diagonalization with overlap

---- Real-time Memory Report at c_bands before calling an iterative solver
           135 MiB given to the printing process from OS
             0 MiB allocation reported by mallinfo(arena+hblkhd)
         26614 MiB available memory on the node where the printing process lives
------------------
     ethr =  2.81E-03,  avg # of iterations =  2.2

     total cpu time spent up to now is      102.1 secs

     total energy              =    -517.31559985 Ry
     estimated scf accuracy    <       0.19516788 Ry

     total magnetization       =     2.07 Bohr mag/cell
     absolute magnetization    =     2.08 Bohr mag/cell

     iteration #  4     ecut=   120.00 Ry     beta= 0.50
     Davidson diagonalization with overlap

---- Real-time Memory Report at c_bands before calling an iterative solver
           135 MiB given to the printing process from OS
             0 MiB allocation reported by mallinfo(arena+hblkhd)
         26598 MiB available memory on the node where the printing process lives
------------------
     c_bands:  4 eigenvalues not converged
     c_bands:  1 eigenvalues not converged
     c_bands:  1 eigenvalues not converged
     c_bands:  2 eigenvalues not converged
     c_bands:  1 eigenvalues not converged
     c_bands:  4 eigenvalues not converged
     c_bands:  1 eigenvalues not converged
     c_bands:  2 eigenvalues not converged
     c_bands:  2 eigenvalues not converged
     c_bands:  1 eigenvalues not converged
     c_bands:  3 eigenvalues not converged
     c_bands:  3 eigenvalues not converged
     c_bands:  2 eigenvalues not converged
     c_bands:  3 eigenvalues not converged
     c_bands:  1 eigenvalues not converged
     c_bands:  2 eigenvalues not converged
     c_bands:  1 eigenvalues not converged
     c_bands:  1 eigenvalues not converged
     c_bands:  1 eigenvalues not converged
     c_bands:  3 eigenvalues not converged
     c_bands:  2 eigenvalues not converged
     c_bands:  1 eigenvalues not converged
     c_bands:  1 eigenvalues not converged
     c_bands:  2 eigenvalues not converged
     c_bands:  4 eigenvalues not converged
     c_bands:  2 eigenvalues not converged
     c_bands:  1 eigenvalues not converged
     c_bands:  1 eigenvalues not converged
     c_bands:  2 eigenvalues not converged
     c_bands:  1 eigenvalues not converged
     c_bands:  1 eigenvalues not converged
     c_bands:  1 eigenvalues not converged
     c_bands:  1 eigenvalues not converged
     c_bands:  1 eigenvalues not converged
     c_bands:  1 eigenvalues not converged
     c_bands:  1 eigenvalues not converged
     c_bands:  1 eigenvalues not converged
     c_bands:  1 eigenvalues not converged
     c_bands:  1 eigenvalues not converged
     c_bands:  1 eigenvalues not converged
     c_bands:  5 eigenvalues not converged
     c_bands:  1 eigenvalues not converged
     c_bands:  1 eigenvalues not converged
     c_bands:  2 eigenvalues not converged
     c_bands:  1 eigenvalues not converged
     c_bands:  1 eigenvalues not converged
     c_bands:  2 eigenvalues not converged
     c_bands:  3 eigenvalues not converged
     c_bands:  1 eigenvalues not converged
     ethr =  3.49E-04,  avg # of iterations = 17.7

     total cpu time spent up to now is      138.6 secs

     total energy              =    -517.42798416 Ry
     estimated scf accuracy    <       0.39352158 Ry

     total magnetization       =     2.22 Bohr mag/cell
     absolute magnetization    =     2.23 Bohr mag/cell

     iteration #  5     ecut=   120.00 Ry     beta= 0.50
     Davidson diagonalization with overlap

---- Real-time Memory Report at c_bands before calling an iterative solver
           135 MiB given to the printing process from OS
             0 MiB allocation reported by mallinfo(arena+hblkhd)
         26582 MiB available memory on the node where the printing process lives
------------------
     c_bands:  3 eigenvalues not converged
     c_bands:  2 eigenvalues not converged
     c_bands:  5 eigenvalues not converged
     c_bands:  2 eigenvalues not converged
     c_bands:  3 eigenvalues not converged
     c_bands:  1 eigenvalues not converged
     c_bands:  1 eigenvalues not converged
     c_bands:  2 eigenvalues not converged
     c_bands:  1 eigenvalues not converged
     ethr =  3.49E-04,  avg # of iterations = 11.8

     total cpu time spent up to now is      162.0 secs

     total energy              =    -517.46418820 Ry
     estimated scf accuracy    <       0.02747664 Ry

     total magnetization       =     1.94 Bohr mag/cell
     absolute magnetization    =     1.95 Bohr mag/cell

     iteration #  6     ecut=   120.00 Ry     beta= 0.50
     Davidson diagonalization with overlap

---- Real-time Memory Report at c_bands before calling an iterative solver
           136 MiB given to the printing process from OS
             0 MiB allocation reported by mallinfo(arena+hblkhd)
         26587 MiB available memory on the node where the printing process lives
------------------
     c_bands:  2 eigenvalues not converged
     c_bands:  1 eigenvalues not converged
     c_bands:  2 eigenvalues not converged
     c_bands:  2 eigenvalues not converged
     c_bands:  2 eigenvalues not converged
     c_bands:  1 eigenvalues not converged
     c_bands:  2 eigenvalues not converged
     c_bands:  4 eigenvalues not converged
     c_bands:  4 eigenvalues not converged
     c_bands:  2 eigenvalues not converged
     c_bands:  2 eigenvalues not converged
     c_bands:  4 eigenvalues not converged
     c_bands:  2 eigenvalues not converged
     c_bands:  2 eigenvalues not converged
     c_bands:  2 eigenvalues not converged
     c_bands:  3 eigenvalues not converged
     c_bands:  2 eigenvalues not converged
     c_bands:  1 eigenvalues not converged
     c_bands:  2 eigenvalues not converged
     c_bands:  2 eigenvalues not converged
     c_bands:  5 eigenvalues not converged
     c_bands:  3 eigenvalues not converged
     c_bands:  4 eigenvalues not converged
     c_bands:  3 eigenvalues not converged
     c_bands:  2 eigenvalues not converged
     c_bands:  1 eigenvalues not converged
     c_bands:  1 eigenvalues not converged
     c_bands:  1 eigenvalues not converged
     c_bands:  1 eigenvalues not converged
     c_bands:  3 eigenvalues not converged
     c_bands:  3 eigenvalues not converged
     c_bands:  3 eigenvalues not converged
     c_bands:  1 eigenvalues not converged
     c_bands:  1 eigenvalues not converged
     c_bands:  2 eigenvalues not converged
     c_bands:  2 eigenvalues not converged
     c_bands:  1 eigenvalues not converged
     c_bands:  2 eigenvalues not converged
     c_bands:  2 eigenvalues not converged
     c_bands:  4 eigenvalues not converged
     c_bands:  5 eigenvalues not converged
     c_bands:  1 eigenvalues not converged
     c_bands:  2 eigenvalues not converged
     c_bands:  3 eigenvalues not converged
     c_bands:  3 eigenvalues not converged
     c_bands:  1 eigenvalues not converged
     c_bands:  1 eigenvalues not converged
     c_bands:  5 eigenvalues not converged
     c_bands:  1 eigenvalues not converged
     c_bands:  1 eigenvalues not converged
     c_bands:  2 eigenvalues not converged
     c_bands:  1 eigenvalues not converged
     c_bands:  4 eigenvalues not converged
     c_bands:  2 eigenvalues not converged
     c_bands:  1 eigenvalues not converged
     c_bands:  1 eigenvalues not converged
     c_bands:  2 eigenvalues not converged
     c_bands:  4 eigenvalues not converged
     c_bands:  1 eigenvalues not converged
     c_bands:  3 eigenvalues not converged
     c_bands:  1 eigenvalues not converged
     c_bands:  2 eigenvalues not converged
     c_bands:  3 eigenvalues not converged
     c_bands:  5 eigenvalues not converged
     ethr =  4.91E-05,  avg # of iterations = 19.5

     total cpu time spent up to now is      201.6 secs

     total energy              =    -517.47817502 Ry
     estimated scf accuracy    <       0.14818248 Ry

     total magnetization       =     2.00 Bohr mag/cell
     absolute magnetization    =     2.01 Bohr mag/cell

     iteration #  7     ecut=   120.00 Ry     beta= 0.50
     Davidson diagonalization with overlap

---- Real-time Memory Report at c_bands before calling an iterative solver
           136 MiB given to the printing process from OS
             0 MiB allocation reported by mallinfo(arena+hblkhd)
         26579 MiB available memory on the node where the printing process lives
------------------
     c_bands:  1 eigenvalues not converged
     c_bands:  1 eigenvalues not converged
     c_bands:  2 eigenvalues not converged
     c_bands:  1 eigenvalues not converged
     c_bands:  1 eigenvalues not converged
     c_bands:  2 eigenvalues not converged
     c_bands:  1 eigenvalues not converged
     c_bands:  1 eigenvalues not converged
     c_bands:  1 eigenvalues not converged
     c_bands:  1 eigenvalues not converged
     c_bands:  1 eigenvalues not converged
     c_bands:  3 eigenvalues not converged
     c_bands:  2 eigenvalues not converged
     c_bands:  2 eigenvalues not converged
     c_bands:  2 eigenvalues not converged
     c_bands:  2 eigenvalues not converged
     c_bands:  1 eigenvalues not converged
     ethr =  4.91E-05,  avg # of iterations = 12.9

     total cpu time spent up to now is      229.4 secs

     total energy              =    -517.48665006 Ry
     estimated scf accuracy    <       0.01626398 Ry

     total magnetization       =     1.86 Bohr mag/cell
     absolute magnetization    =     1.88 Bohr mag/cell

     iteration #  8     ecut=   120.00 Ry     beta= 0.50
     Davidson diagonalization with overlap

---- Real-time Memory Report at c_bands before calling an iterative solver
           136 MiB given to the printing process from OS
             0 MiB allocation reported by mallinfo(arena+hblkhd)
         26569 MiB available memory on the node where the printing process lives
------------------
     c_bands:  1 eigenvalues not converged
     c_bands:  1 eigenvalues not converged
     c_bands:  1 eigenvalues not converged
     c_bands:  3 eigenvalues not converged
     c_bands:  2 eigenvalues not converged
     c_bands:  1 eigenvalues not converged
     c_bands:  1 eigenvalues not converged
     c_bands:  1 eigenvalues not converged
     c_bands:  1 eigenvalues not converged
     c_bands:  1 eigenvalues not converged
     c_bands:  1 eigenvalues not converged
     c_bands:  2 eigenvalues not converged
     c_bands:  1 eigenvalues not converged
     c_bands:  3 eigenvalues not converged
     c_bands:  3 eigenvalues not converged
     c_bands:  1 eigenvalues not converged
     ethr =  2.90E-05,  avg # of iterations = 11.2

     total cpu time spent up to now is      251.9 secs

     total energy              =    -517.48973864 Ry
     estimated scf accuracy    <       0.00283350 Ry

     total magnetization       =     1.71 Bohr mag/cell
     absolute magnetization    =     1.73 Bohr mag/cell

     iteration #  9     ecut=   120.00 Ry     beta= 0.50
     Davidson diagonalization with overlap

---- Real-time Memory Report at c_bands before calling an iterative solver
           137 MiB given to the printing process from OS
             0 MiB allocation reported by mallinfo(arena+hblkhd)
         26564 MiB available memory on the node where the printing process lives
------------------
     c_bands:  1 eigenvalues not converged
     c_bands:  2 eigenvalues not converged
     c_bands:  1 eigenvalues not converged
     c_bands:  4 eigenvalues not converged
     c_bands:  2 eigenvalues not converged
     c_bands:  3 eigenvalues not converged
     c_bands:  2 eigenvalues not converged
     c_bands:  3 eigenvalues not converged
     c_bands:  1 eigenvalues not converged
     c_bands:  1 eigenvalues not converged
     c_bands:  4 eigenvalues not converged
     c_bands:  3 eigenvalues not converged
     c_bands:  2 eigenvalues not converged
     c_bands:  2 eigenvalues not converged
     c_bands:  2 eigenvalues not converged
     c_bands:  4 eigenvalues not converged
     c_bands:  1 eigenvalues not converged
     c_bands:  4 eigenvalues not converged
     c_bands:  1 eigenvalues not converged
     c_bands:  1 eigenvalues not converged
     c_bands:  2 eigenvalues not converged
     c_bands:  1 eigenvalues not converged
     c_bands:  2 eigenvalues not converged
     c_bands:  1 eigenvalues not converged
     c_bands:  2 eigenvalues not converged
     c_bands:  2 eigenvalues not converged
     c_bands:  1 eigenvalues not converged
     c_bands:  2 eigenvalues not converged
     c_bands:  1 eigenvalues not converged
     c_bands:  1 eigenvalues not converged
     c_bands:  2 eigenvalues not converged
     c_bands:  1 eigenvalues not converged
     c_bands:  2 eigenvalues not converged
     c_bands:  2 eigenvalues not converged
     c_bands:  2 eigenvalues not converged
     c_bands:  2 eigenvalues not converged
     c_bands:  1 eigenvalues not converged
     c_bands:  1 eigenvalues not converged
     c_bands:  2 eigenvalues not converged
     c_bands:  4 eigenvalues not converged
     ethr =  5.06E-06,  avg # of iterations = 17.1

     total cpu time spent up to now is      287.3 secs

     total energy              =    -517.49093174 Ry
     estimated scf accuracy    <       0.01999769 Ry

     total magnetization       =     1.63 Bohr mag/cell
     absolute magnetization    =     1.65 Bohr mag/cell

     iteration # 10     ecut=   120.00 Ry     beta= 0.50
     Davidson diagonalization with overlap

---- Real-time Memory Report at c_bands before calling an iterative solver
           137 MiB given to the printing process from OS
             0 MiB allocation reported by mallinfo(arena+hblkhd)
         26558 MiB available memory on the node where the printing process lives
------------------
     c_bands:  1 eigenvalues not converged
     c_bands:  1 eigenvalues not converged
     c_bands:  3 eigenvalues not converged
     c_bands:  3 eigenvalues not converged
     c_bands:  1 eigenvalues not converged
     c_bands:  1 eigenvalues not converged
     c_bands:  2 eigenvalues not converged
     c_bands:  2 eigenvalues not converged
     c_bands:  2 eigenvalues not converged
     c_bands:  3 eigenvalues not converged
     c_bands:  1 eigenvalues not converged
     c_bands:  1 eigenvalues not converged
     c_bands:  1 eigenvalues not converged
     c_bands:  2 eigenvalues not converged
     c_bands:  1 eigenvalues not converged
     c_bands:  1 eigenvalues not converged
     c_bands:  2 eigenvalues not converged
     ethr =  5.06E-06,  avg # of iterations = 11.7

     total cpu time spent up to now is      311.1 secs

     total energy              =    -517.49155724 Ry
     estimated scf accuracy    <       0.00219082 Ry

     total magnetization       =     1.58 Bohr mag/cell
     absolute magnetization    =     1.60 Bohr mag/cell

     iteration # 11     ecut=   120.00 Ry     beta= 0.50
     Davidson diagonalization with overlap

---- Real-time Memory Report at c_bands before calling an iterative solver
           137 MiB given to the printing process from OS
             0 MiB allocation reported by mallinfo(arena+hblkhd)
         26558 MiB available memory on the node where the printing process lives
------------------
     c_bands:  1 eigenvalues not converged
     c_bands:  1 eigenvalues not converged
     c_bands:  1 eigenvalues not converged
     c_bands:  4 eigenvalues not converged
     c_bands:  2 eigenvalues not converged
     c_bands:  3 eigenvalues not converged
     c_bands:  1 eigenvalues not converged
     c_bands:  3 eigenvalues not converged
     c_bands:  1 eigenvalues not converged
     c_bands:  1 eigenvalues not converged
     c_bands:  4 eigenvalues not converged
     c_bands:  2 eigenvalues not converged
     c_bands:  1 eigenvalues not converged
     c_bands:  1 eigenvalues not converged
     c_bands:  1 eigenvalues not converged
     c_bands:  2 eigenvalues not converged
     c_bands:  1 eigenvalues not converged
     c_bands:  3 eigenvalues not converged
     c_bands:  1 eigenvalues not converged
     c_bands:  1 eigenvalues not converged
     c_bands:  4 eigenvalues not converged
     c_bands:  1 eigenvalues not converged
     c_bands:  2 eigenvalues not converged
     ethr =  3.91E-06,  avg # of iterations = 13.1

     total cpu time spent up to now is      338.1 secs

     total energy              =    -517.49211755 Ry
     estimated scf accuracy    <       0.00499745 Ry

     total magnetization       =     1.51 Bohr mag/cell
     absolute magnetization    =     1.54 Bohr mag/cell

     iteration # 12     ecut=   120.00 Ry     beta= 0.50
     Davidson diagonalization with overlap

---- Real-time Memory Report at c_bands before calling an iterative solver
           137 MiB given to the printing process from OS
             0 MiB allocation reported by mallinfo(arena+hblkhd)
         26544 MiB available memory on the node where the printing process lives
------------------
     c_bands:  1 eigenvalues not converged
     c_bands:  3 eigenvalues not converged
     c_bands:  1 eigenvalues not converged
     c_bands:  1 eigenvalues not converged
     c_bands:  3 eigenvalues not converged
     c_bands:  1 eigenvalues not converged
     c_bands:  1 eigenvalues not converged
     c_bands:  1 eigenvalues not converged
     c_bands:  1 eigenvalues not converged
     ethr =  3.91E-06,  avg # of iterations =  4.6

     total cpu time spent up to now is      354.6 secs

     total energy              =    -517.49206803 Ry
     estimated scf accuracy    <       0.00205927 Ry

     total magnetization       =     1.46 Bohr mag/cell
     absolute magnetization    =     1.49 Bohr mag/cell

     iteration # 13     ecut=   120.00 Ry     beta= 0.50
     Davidson diagonalization with overlap

---- Real-time Memory Report at c_bands before calling an iterative solver
           137 MiB given to the printing process from OS
             0 MiB allocation reported by mallinfo(arena+hblkhd)
         26547 MiB available memory on the node where the printing process lives
------------------
     c_bands:  1 eigenvalues not converged
     c_bands:  3 eigenvalues not converged
     c_bands:  2 eigenvalues not converged
     c_bands:  1 eigenvalues not converged
     c_bands:  1 eigenvalues not converged
     c_bands:  2 eigenvalues not converged
     ethr =  3.68E-06,  avg # of iterations =  6.4

     total cpu time spent up to now is      372.2 secs

     total energy              =    -517.49218189 Ry
     estimated scf accuracy    <       0.00018610 Ry

     total magnetization       =     1.43 Bohr mag/cell
     absolute magnetization    =     1.46 Bohr mag/cell

     iteration # 14     ecut=   120.00 Ry     beta= 0.50
     Davidson diagonalization with overlap

---- Real-time Memory Report at c_bands before calling an iterative solver
           137 MiB given to the printing process from OS
             0 MiB allocation reported by mallinfo(arena+hblkhd)
         26553 MiB available memory on the node where the printing process lives
------------------
     c_bands:  2 eigenvalues not converged
     c_bands:  1 eigenvalues not converged
     c_bands:  1 eigenvalues not converged
     c_bands:  2 eigenvalues not converged
     c_bands:  1 eigenvalues not converged
     c_bands:  1 eigenvalues not converged
     c_bands:  2 eigenvalues not converged
     c_bands:  4 eigenvalues not converged
     c_bands:  1 eigenvalues not converged
     c_bands:  1 eigenvalues not converged
     c_bands:  2 eigenvalues not converged
     c_bands:  2 eigenvalues not converged
     c_bands:  2 eigenvalues not converged
     c_bands:  1 eigenvalues not converged
     c_bands:  1 eigenvalues not converged
     c_bands:  1 eigenvalues not converged
     c_bands:  1 eigenvalues not converged
     c_bands:  5 eigenvalues not converged
     c_bands:  4 eigenvalues not converged
     c_bands:  1 eigenvalues not converged
     c_bands:  2 eigenvalues not converged
     c_bands:  1 eigenvalues not converged
     c_bands:  2 eigenvalues not converged
     c_bands:  2 eigenvalues not converged
     c_bands:  4 eigenvalues not converged
     c_bands:  1 eigenvalues not converged
     c_bands:  1 eigenvalues not converged
     c_bands:  1 eigenvalues not converged
     c_bands:  1 eigenvalues not converged
     c_bands:  1 eigenvalues not converged
     c_bands:  2 eigenvalues not converged
     c_bands:  3 eigenvalues not converged
     c_bands:  2 eigenvalues not converged
     c_bands:  3 eigenvalues not converged
     c_bands:  3 eigenvalues not converged
     c_bands:  1 eigenvalues not converged
     c_bands:  2 eigenvalues not converged
     c_bands:  1 eigenvalues not converged
     c_bands:  2 eigenvalues not converged
     c_bands:  5 eigenvalues not converged
     c_bands:  2 eigenvalues not converged
     c_bands:  1 eigenvalues not converged
     c_bands:  2 eigenvalues not converged
     c_bands:  1 eigenvalues not converged
     c_bands:  3 eigenvalues not converged
     c_bands:  4 eigenvalues not converged
     c_bands:  2 eigenvalues not converged
     c_bands:  1 eigenvalues not converged
     c_bands:  2 eigenvalues not converged
     c_bands:  2 eigenvalues not converged
     c_bands:  3 eigenvalues not converged
     c_bands:  1 eigenvalues not converged
     ethr =  3.32E-07,  avg # of iterations = 18.4

     total cpu time spent up to now is      413.1 secs

     total energy              =    -517.49240256 Ry
     estimated scf accuracy    <       0.00269478 Ry

     total magnetization       =     1.36 Bohr mag/cell
     absolute magnetization    =     1.39 Bohr mag/cell

     iteration # 15     ecut=   120.00 Ry     beta= 0.50
     Davidson diagonalization with overlap

---- Real-time Memory Report at c_bands before calling an iterative solver
           138 MiB given to the printing process from OS
             0 MiB allocation reported by mallinfo(arena+hblkhd)
         26555 MiB available memory on the node where the printing process lives
------------------
     c_bands:  2 eigenvalues not converged
     c_bands:  2 eigenvalues not converged
     c_bands:  4 eigenvalues not converged
     c_bands:  1 eigenvalues not converged
     c_bands:  2 eigenvalues not converged
     c_bands:  1 eigenvalues not converged
     c_bands:  2 eigenvalues not converged
     c_bands:  4 eigenvalues not converged
     c_bands:  1 eigenvalues not converged
     c_bands:  1 eigenvalues not converged
     c_bands:  1 eigenvalues not converged
     c_bands:  4 eigenvalues not converged
     c_bands:  2 eigenvalues not converged
     c_bands:  1 eigenvalues not converged
     c_bands:  2 eigenvalues not converged
     c_bands:  2 eigenvalues not converged
     c_bands:  4 eigenvalues not converged
     c_bands:  2 eigenvalues not converged
     c_bands:  3 eigenvalues not converged
     c_bands:  2 eigenvalues not converged
     c_bands:  1 eigenvalues not converged
     c_bands:  1 eigenvalues not converged
     c_bands:  4 eigenvalues not converged
     c_bands:  1 eigenvalues not converged
     c_bands:  2 eigenvalues not converged
     c_bands:  2 eigenvalues not converged
     ethr =  3.32E-07,  avg # of iterations = 10.3

     total cpu time spent up to now is      434.5 secs

     total energy              =    -517.49241454 Ry
     estimated scf accuracy    <       0.00139247 Ry

     total magnetization       =     1.33 Bohr mag/cell
     absolute magnetization    =     1.36 Bohr mag/cell

     iteration # 16     ecut=   120.00 Ry     beta= 0.50
     Davidson diagonalization with overlap

---- Real-time Memory Report at c_bands before calling an iterative solver
           138 MiB given to the printing process from OS
             0 MiB allocation reported by mallinfo(arena+hblkhd)
         26554 MiB available memory on the node where the printing process lives
------------------
     c_bands:  2 eigenvalues not converged
     c_bands:  2 eigenvalues not converged
     c_bands:  1 eigenvalues not converged
     c_bands:  4 eigenvalues not converged
     c_bands:  1 eigenvalues not converged
     c_bands:  1 eigenvalues not converged
     c_bands:  1 eigenvalues not converged
     c_bands:  2 eigenvalues not converged
     c_bands:  3 eigenvalues not converged
     c_bands:  2 eigenvalues not converged
     c_bands:  2 eigenvalues not converged
     c_bands:  2 eigenvalues not converged
     c_bands:  2 eigenvalues not converged
     c_bands:  4 eigenvalues not converged
     c_bands:  1 eigenvalues not converged
     c_bands:  2 eigenvalues not converged
     c_bands:  2 eigenvalues not converged
     c_bands:  1 eigenvalues not converged
     c_bands:  1 eigenvalues not converged
     c_bands:  4 eigenvalues not converged
     c_bands:  2 eigenvalues not converged
     c_bands:  3 eigenvalues not converged
     ethr =  3.32E-07,  avg # of iterations = 10.8

     total cpu time spent up to now is      456.1 secs

     total energy              =    -517.49244234 Ry
     estimated scf accuracy    <       0.00058580 Ry

     total magnetization       =     1.32 Bohr mag/cell
     absolute magnetization    =     1.35 Bohr mag/cell

     iteration # 17     ecut=   120.00 Ry     beta= 0.50
     Davidson diagonalization with overlap

---- Real-time Memory Report at c_bands before calling an iterative solver
           138 MiB given to the printing process from OS
             0 MiB allocation reported by mallinfo(arena+hblkhd)
         26545 MiB available memory on the node where the printing process lives
------------------
     c_bands:  2 eigenvalues not converged
     c_bands:  2 eigenvalues not converged
     c_bands:  1 eigenvalues not converged
     c_bands:  1 eigenvalues not converged
     c_bands:  2 eigenvalues not converged
     c_bands:  3 eigenvalues not converged
     c_bands:  1 eigenvalues not converged
     c_bands:  2 eigenvalues not converged
     c_bands:  2 eigenvalues not converged
     c_bands:  2 eigenvalues not converged
     c_bands:  4 eigenvalues not converged
     c_bands:  2 eigenvalues not converged
     c_bands:  1 eigenvalues not converged
     c_bands:  1 eigenvalues not converged
     c_bands:  3 eigenvalues not converged
     c_bands:  1 eigenvalues not converged
     c_bands:  3 eigenvalues not converged
     ethr =  3.32E-07,  avg # of iterations =  7.2

     total cpu time spent up to now is      474.8 secs

     total energy              =    -517.49245154 Ry
     estimated scf accuracy    <       0.00040912 Ry

     total magnetization       =     1.25 Bohr mag/cell
     absolute magnetization    =     1.28 Bohr mag/cell

     iteration # 18     ecut=   120.00 Ry     beta= 0.50
     Davidson diagonalization with overlap

---- Real-time Memory Report at c_bands before calling an iterative solver
           138 MiB given to the printing process from OS
             0 MiB allocation reported by mallinfo(arena+hblkhd)
         26550 MiB available memory on the node where the printing process lives
------------------
     c_bands:  2 eigenvalues not converged
     c_bands:  2 eigenvalues not converged
     c_bands:  3 eigenvalues not converged
     c_bands:  1 eigenvalues not converged
     c_bands:  2 eigenvalues not converged
     c_bands:  2 eigenvalues not converged
     c_bands:  4 eigenvalues not converged
     c_bands:  3 eigenvalues not converged
     c_bands:  1 eigenvalues not converged
     c_bands:  2 eigenvalues not converged
     c_bands:  2 eigenvalues not converged
     ethr =  3.32E-07,  avg # of iterations =  7.4

     total cpu time spent up to now is      494.1 secs

     total energy              =    -517.49245162 Ry
     estimated scf accuracy    <       0.00017440 Ry

     total magnetization       =     1.16 Bohr mag/cell
     absolute magnetization    =     1.18 Bohr mag/cell

     iteration # 19     ecut=   120.00 Ry     beta= 0.50
     Davidson diagonalization with overlap

---- Real-time Memory Report at c_bands before calling an iterative solver
           138 MiB given to the printing process from OS
             0 MiB allocation reported by mallinfo(arena+hblkhd)
         26557 MiB available memory on the node where the printing process lives
------------------
     c_bands:  1 eigenvalues not converged
     c_bands:  2 eigenvalues not converged
     c_bands:  1 eigenvalues not converged
     c_bands:  3 eigenvalues not converged
     c_bands:  2 eigenvalues not converged
     c_bands:  1 eigenvalues not converged
     c_bands:  2 eigenvalues not converged
     c_bands:  2 eigenvalues not converged
     c_bands:  1 eigenvalues not converged
     c_bands:  1 eigenvalues not converged
     c_bands:  4 eigenvalues not converged
     c_bands:  3 eigenvalues not converged
     c_bands:  1 eigenvalues not converged
     c_bands:  4 eigenvalues not converged
     c_bands:  1 eigenvalues not converged
     c_bands:  2 eigenvalues not converged
     c_bands:  2 eigenvalues not converged
     c_bands:  3 eigenvalues not converged
     c_bands:  1 eigenvalues not converged
     ethr =  3.11E-07,  avg # of iterations = 12.1

     total cpu time spent up to now is      519.2 secs

     total energy              =    -517.49256627 Ry
     estimated scf accuracy    <       0.00004133 Ry

     total magnetization       =     1.03 Bohr mag/cell
     absolute magnetization    =     1.05 Bohr mag/cell

     iteration # 20     ecut=   120.00 Ry     beta= 0.50
     Davidson diagonalization with overlap

---- Real-time Memory Report at c_bands before calling an iterative solver
           138 MiB given to the printing process from OS
             0 MiB allocation reported by mallinfo(arena+hblkhd)
         26559 MiB available memory on the node where the printing process lives
------------------
     c_bands:  1 eigenvalues not converged
     c_bands:  1 eigenvalues not converged
     c_bands:  2 eigenvalues not converged
     c_bands:  2 eigenvalues not converged
     c_bands:  2 eigenvalues not converged
     c_bands:  4 eigenvalues not converged
     c_bands:  1 eigenvalues not converged
     c_bands:  2 eigenvalues not converged
     c_bands:  2 eigenvalues not converged
     c_bands:  1 eigenvalues not converged
     c_bands:  1 eigenvalues not converged
     c_bands:  2 eigenvalues not converged
     c_bands:  2 eigenvalues not converged
     c_bands:  1 eigenvalues not converged
     c_bands:  2 eigenvalues not converged
     c_bands:  4 eigenvalues not converged
     c_bands:  2 eigenvalues not converged
     c_bands:  1 eigenvalues not converged
     c_bands:  2 eigenvalues not converged
     c_bands:  1 eigenvalues not converged
     c_bands:  4 eigenvalues not converged
     c_bands:  1 eigenvalues not converged
     c_bands:  1 eigenvalues not converged
     c_bands:  1 eigenvalues not converged
     c_bands:  2 eigenvalues not converged
     c_bands:  2 eigenvalues not converged
     c_bands:  2 eigenvalues not converged
     c_bands:  4 eigenvalues not converged
     c_bands:  1 eigenvalues not converged
     c_bands:  4 eigenvalues not converged
     c_bands:  1 eigenvalues not converged
     c_bands:  1 eigenvalues not converged
     c_bands:  1 eigenvalues not converged
     c_bands:  1 eigenvalues not converged
     c_bands:  4 eigenvalues not converged
     c_bands:  1 eigenvalues not converged
     c_bands:  1 eigenvalues not converged
     c_bands:  2 eigenvalues not converged
     c_bands:  4 eigenvalues not converged
     ethr =  7.38E-08,  avg # of iterations = 17.0

     total cpu time spent up to now is      553.3 secs

     total energy              =    -517.49259686 Ry
     estimated scf accuracy    <       0.00064569 Ry

     total magnetization       =     1.02 Bohr mag/cell
     absolute magnetization    =     1.05 Bohr mag/cell

     iteration # 21     ecut=   120.00 Ry     beta= 0.50
     Davidson diagonalization with overlap

---- Real-time Memory Report at c_bands before calling an iterative solver
           138 MiB given to the printing process from OS
             0 MiB allocation reported by mallinfo(arena+hblkhd)
         26561 MiB available memory on the node where the printing process lives
------------------
     c_bands:  2 eigenvalues not converged
     c_bands:  2 eigenvalues not converged
     c_bands:  1 eigenvalues not converged
     c_bands:  3 eigenvalues not converged
     c_bands:  1 eigenvalues not converged
     c_bands:  2 eigenvalues not converged
     c_bands:  1 eigenvalues not converged
     c_bands:  1 eigenvalues not converged
     c_bands:  2 eigenvalues not converged
     c_bands:  3 eigenvalues not converged
     c_bands:  1 eigenvalues not converged
     c_bands:  2 eigenvalues not converged
     c_bands:  3 eigenvalues not converged
     c_bands:  1 eigenvalues not converged
     c_bands:  2 eigenvalues not converged
     c_bands:  2 eigenvalues not converged
     c_bands:  2 eigenvalues not converged
     c_bands:  4 eigenvalues not converged
     c_bands:  5 eigenvalues not converged
     c_bands:  1 eigenvalues not converged
     c_bands:  4 eigenvalues not converged
     c_bands:  2 eigenvalues not converged
     c_bands:  4 eigenvalues not converged
     ethr =  7.38E-08,  avg # of iterations =  6.6

     total cpu time spent up to now is      571.6 secs

     total energy              =    -517.49261595 Ry
     estimated scf accuracy    <       0.00057319 Ry

     total magnetization       =     1.01 Bohr mag/cell
     absolute magnetization    =     1.03 Bohr mag/cell

     iteration # 22     ecut=   120.00 Ry     beta= 0.50
     Davidson diagonalization with overlap

---- Real-time Memory Report at c_bands before calling an iterative solver
           138 MiB given to the printing process from OS
             0 MiB allocation reported by mallinfo(arena+hblkhd)
         26525 MiB available memory on the node where the printing process lives
------------------
     c_bands:  1 eigenvalues not converged
     c_bands:  2 eigenvalues not converged
     c_bands:  2 eigenvalues not converged
     c_bands:  4 eigenvalues not converged
     c_bands:  2 eigenvalues not converged
     c_bands:  1 eigenvalues not converged
     c_bands:  2 eigenvalues not converged
     c_bands:  4 eigenvalues not converged
     c_bands:  2 eigenvalues not converged
     c_bands:  2 eigenvalues not converged
     c_bands:  2 eigenvalues not converged
     c_bands:  1 eigenvalues not converged
     c_bands:  2 eigenvalues not converged
     c_bands:  2 eigenvalues not converged
     c_bands:  4 eigenvalues not converged
     c_bands:  1 eigenvalues not converged
     c_bands:  5 eigenvalues not converged
     c_bands:  1 eigenvalues not converged
     c_bands:  4 eigenvalues not converged
     c_bands:  1 eigenvalues not converged
     c_bands:  2 eigenvalues not converged
     c_bands:  4 eigenvalues not converged
     c_bands:  1 eigenvalues not converged
     ethr =  7.38E-08,  avg # of iterations = 12.8

     total cpu time spent up to now is      597.4 secs

     total energy              =    -517.49264282 Ry
     estimated scf accuracy    <       0.00128864 Ry

     total magnetization       =     0.93 Bohr mag/cell
     absolute magnetization    =     0.95 Bohr mag/cell

     iteration # 23     ecut=   120.00 Ry     beta= 0.50
     Davidson diagonalization with overlap

---- Real-time Memory Report at c_bands before calling an iterative solver
           139 MiB given to the printing process from OS
             0 MiB allocation reported by mallinfo(arena+hblkhd)
         26548 MiB available memory on the node where the printing process lives
------------------
     c_bands:  2 eigenvalues not converged
     c_bands:  1 eigenvalues not converged
     c_bands:  1 eigenvalues not converged
     c_bands:  2 eigenvalues not converged
     c_bands:  2 eigenvalues not converged
     c_bands:  2 eigenvalues not converged
     c_bands:  2 eigenvalues not converged
     c_bands:  2 eigenvalues not converged
     c_bands:  2 eigenvalues not converged
     c_bands:  2 eigenvalues not converged
     c_bands:  1 eigenvalues not converged
     c_bands:  4 eigenvalues not converged
     c_bands:  3 eigenvalues not converged
     c_bands:  1 eigenvalues not converged
     c_bands:  4 eigenvalues not converged
     c_bands:  2 eigenvalues not converged
     c_bands:  4 eigenvalues not converged
     ethr =  7.38E-08,  avg # of iterations =  5.2

     total cpu time spent up to now is      614.5 secs

     total energy              =    -517.49263272 Ry
     estimated scf accuracy    <       0.00130633 Ry

     total magnetization       =     0.95 Bohr mag/cell
     absolute magnetization    =     0.97 Bohr mag/cell

     iteration # 24     ecut=   120.00 Ry     beta= 0.50
     Davidson diagonalization with overlap

---- Real-time Memory Report at c_bands before calling an iterative solver
           139 MiB given to the printing process from OS
             0 MiB allocation reported by mallinfo(arena+hblkhd)
         26553 MiB available memory on the node where the printing process lives
------------------
     c_bands:  1 eigenvalues not converged
     c_bands:  3 eigenvalues not converged
     c_bands:  2 eigenvalues not converged
     c_bands:  2 eigenvalues not converged
     c_bands:  2 eigenvalues not converged
     c_bands:  2 eigenvalues not converged
     c_bands:  3 eigenvalues not converged
     c_bands:  1 eigenvalues not converged
     c_bands:  3 eigenvalues not converged
     c_bands:  3 eigenvalues not converged
     c_bands:  1 eigenvalues not converged
     c_bands:  3 eigenvalues not converged
     c_bands:  1 eigenvalues not converged
     c_bands:  2 eigenvalues not converged
     ethr =  7.38E-08,  avg # of iterations =  4.8

     total cpu time spent up to now is      631.5 secs

     total energy              =    -517.49258712 Ry
     estimated scf accuracy    <       0.00112212 Ry

     total magnetization       =     0.93 Bohr mag/cell
     absolute magnetization    =     0.96 Bohr mag/cell

     iteration # 25     ecut=   120.00 Ry     beta= 0.50
     Davidson diagonalization with overlap

---- Real-time Memory Report at c_bands before calling an iterative solver
           139 MiB given to the printing process from OS
             0 MiB allocation reported by mallinfo(arena+hblkhd)
         26556 MiB available memory on the node where the printing process lives
------------------
     c_bands:  1 eigenvalues not converged
     c_bands:  1 eigenvalues not converged
     c_bands:  2 eigenvalues not converged
     c_bands:  3 eigenvalues not converged
     c_bands:  1 eigenvalues not converged
     c_bands:  1 eigenvalues not converged
     c_bands:  2 eigenvalues not converged
     c_bands:  1 eigenvalues not converged
     c_bands:  3 eigenvalues not converged
     c_bands:  4 eigenvalues not converged
     c_bands:  2 eigenvalues not converged
     c_bands:  3 eigenvalues not converged
     c_bands:  1 eigenvalues not converged
     c_bands:  1 eigenvalues not converged
     c_bands:  4 eigenvalues not converged
     c_bands:  1 eigenvalues not converged
     c_bands:  3 eigenvalues not converged
     c_bands:  2 eigenvalues not converged
     c_bands:  2 eigenvalues not converged
     c_bands:  2 eigenvalues not converged
     c_bands:  2 eigenvalues not converged
     c_bands:  2 eigenvalues not converged
     c_bands:  1 eigenvalues not converged
     c_bands:  1 eigenvalues not converged
     c_bands:  3 eigenvalues not converged
     c_bands:  1 eigenvalues not converged
     c_bands:  1 eigenvalues not converged
     ethr =  7.38E-08,  avg # of iterations = 15.3

     total cpu time spent up to now is      663.1 secs

     total energy              =    -517.49260885 Ry
     estimated scf accuracy    <       0.00014211 Ry

     total magnetization       =     0.90 Bohr mag/cell
     absolute magnetization    =     0.92 Bohr mag/cell

     iteration # 26     ecut=   120.00 Ry     beta= 0.50
     Davidson diagonalization with overlap

---- Real-time Memory Report at c_bands before calling an iterative solver
           139 MiB given to the printing process from OS
             0 MiB allocation reported by mallinfo(arena+hblkhd)
         26554 MiB available memory on the node where the printing process lives
------------------
     c_bands:  2 eigenvalues not converged
     c_bands:  1 eigenvalues not converged
     c_bands:  3 eigenvalues not converged
     c_bands:  1 eigenvalues not converged
     c_bands:  1 eigenvalues not converged
     c_bands:  2 eigenvalues not converged
     c_bands:  2 eigenvalues not converged
     c_bands:  3 eigenvalues not converged
     c_bands:  1 eigenvalues not converged
     c_bands:  3 eigenvalues not converged
     c_bands:  5 eigenvalues not converged
     c_bands:  1 eigenvalues not converged
     c_bands:  3 eigenvalues not converged
     c_bands:  1 eigenvalues not converged
     c_bands:  2 eigenvalues not converged
     ethr =  7.38E-08,  avg # of iterations =  7.4

     total cpu time spent up to now is      682.5 secs

     total energy              =    -517.49263433 Ry
     estimated scf accuracy    <       0.00010037 Ry

     total magnetization       =     0.82 Bohr mag/cell
     absolute magnetization    =     0.84 Bohr mag/cell

     iteration # 27     ecut=   120.00 Ry     beta= 0.50
     Davidson diagonalization with overlap

---- Real-time Memory Report at c_bands before calling an iterative solver
           139 MiB given to the printing process from OS
             0 MiB allocation reported by mallinfo(arena+hblkhd)
         26555 MiB available memory on the node where the printing process lives
------------------
     c_bands:  1 eigenvalues not converged
     c_bands:  1 eigenvalues not converged
     c_bands:  3 eigenvalues not converged
     c_bands:  2 eigenvalues not converged
     c_bands:  2 eigenvalues not converged
     c_bands:  2 eigenvalues not converged
     c_bands:  2 eigenvalues not converged
     c_bands:  3 eigenvalues not converged
     c_bands:  4 eigenvalues not converged
     c_bands:  4 eigenvalues not converged
     c_bands:  1 eigenvalues not converged
     c_bands:  2 eigenvalues not converged
     c_bands:  1 eigenvalues not converged
     c_bands:  2 eigenvalues not converged
     ethr =  7.38E-08,  avg # of iterations =  8.7

     total cpu time spent up to now is      702.3 secs

     total energy              =    -517.49264454 Ry
     estimated scf accuracy    <       0.00010831 Ry

     total magnetization       =     0.79 Bohr mag/cell
     absolute magnetization    =     0.81 Bohr mag/cell

     iteration # 28     ecut=   120.00 Ry     beta= 0.50
     Davidson diagonalization with overlap

---- Real-time Memory Report at c_bands before calling an iterative solver
           139 MiB given to the printing process from OS
             0 MiB allocation reported by mallinfo(arena+hblkhd)
         26548 MiB available memory on the node where the printing process lives
------------------
     c_bands:  1 eigenvalues not converged
     c_bands:  2 eigenvalues not converged
     c_bands:  2 eigenvalues not converged
     c_bands:  1 eigenvalues not converged
     c_bands:  2 eigenvalues not converged
     c_bands:  2 eigenvalues not converged
     c_bands:  3 eigenvalues not converged
     c_bands:  3 eigenvalues not converged
     c_bands:  1 eigenvalues not converged
     c_bands:  1 eigenvalues not converged
     c_bands:  1 eigenvalues not converged
     c_bands:  1 eigenvalues not converged
     c_bands:  2 eigenvalues not converged
     ethr =  7.38E-08,  avg # of iterations =  4.1

     total cpu time spent up to now is      718.3 secs

     total energy              =    -517.49264759 Ry
     estimated scf accuracy    <       0.00011401 Ry

     total magnetization       =     0.79 Bohr mag/cell
     absolute magnetization    =     0.81 Bohr mag/cell

     iteration # 29     ecut=   120.00 Ry     beta= 0.50
     Davidson diagonalization with overlap

---- Real-time Memory Report at c_bands before calling an iterative solver
           139 MiB given to the printing process from OS
             0 MiB allocation reported by mallinfo(arena+hblkhd)
         26541 MiB available memory on the node where the printing process lives
------------------
     c_bands:  1 eigenvalues not converged
     c_bands:  2 eigenvalues not converged
     c_bands:  1 eigenvalues not converged
     c_bands:  2 eigenvalues not converged
     c_bands:  2 eigenvalues not converged
     c_bands:  2 eigenvalues not converged
     c_bands:  3 eigenvalues not converged
     c_bands:  3 eigenvalues not converged
     c_bands:  1 eigenvalues not converged
     c_bands:  1 eigenvalues not converged
     c_bands:  2 eigenvalues not converged
     ethr =  7.38E-08,  avg # of iterations =  7.6

     total cpu time spent up to now is      737.2 secs

     total energy              =    -517.49265578 Ry
     estimated scf accuracy    <       0.00007820 Ry

     total magnetization       =     0.76 Bohr mag/cell
     absolute magnetization    =     0.78 Bohr mag/cell

     iteration # 30     ecut=   120.00 Ry     beta= 0.50
     Davidson diagonalization with overlap

---- Real-time Memory Report at c_bands before calling an iterative solver
           139 MiB given to the printing process from OS
             0 MiB allocation reported by mallinfo(arena+hblkhd)
         26551 MiB available memory on the node where the printing process lives
------------------
     c_bands:  1 eigenvalues not converged
     c_bands:  2 eigenvalues not converged
     c_bands:  2 eigenvalues not converged
     c_bands:  1 eigenvalues not converged
     c_bands:  2 eigenvalues not converged
     c_bands:  2 eigenvalues not converged
     c_bands:  3 eigenvalues not converged
     c_bands:  3 eigenvalues not converged
     c_bands:  1 eigenvalues not converged
     c_bands:  1 eigenvalues not converged
     ethr =  7.38E-08,  avg # of iterations =  3.4

     total cpu time spent up to now is      754.0 secs

     total energy              =    -517.49261639 Ry
     estimated scf accuracy    <       0.00007018 Ry

     total magnetization       =     0.76 Bohr mag/cell
     absolute magnetization    =     0.78 Bohr mag/cell

     iteration # 31     ecut=   120.00 Ry     beta= 0.50
     Davidson diagonalization with overlap

---- Real-time Memory Report at c_bands before calling an iterative solver
           139 MiB given to the printing process from OS
             0 MiB allocation reported by mallinfo(arena+hblkhd)
         24800 MiB available memory on the node where the printing process lives
------------------
     c_bands:  1 eigenvalues not converged
     c_bands:  2 eigenvalues not converged
     c_bands:  2 eigenvalues not converged
     c_bands:  1 eigenvalues not converged
     c_bands:  1 eigenvalues not converged
     c_bands:  1 eigenvalues not converged
     c_bands:  1 eigenvalues not converged
     c_bands:  2 eigenvalues not converged
     c_bands:  2 eigenvalues not converged
     c_bands:  1 eigenvalues not converged
     c_bands:  1 eigenvalues not converged
     c_bands:  3 eigenvalues not converged
     c_bands:  3 eigenvalues not converged
     c_bands:  1 eigenvalues not converged
     c_bands:  1 eigenvalues not converged
     c_bands:  2 eigenvalues not converged
     c_bands:  1 eigenvalues not converged
     c_bands:  1 eigenvalues not converged
     c_bands:  3 eigenvalues not converged
     ethr =  7.38E-08,  avg # of iterations = 12.7

     total cpu time spent up to now is      784.0 secs

     total energy              =    -517.49265815 Ry
     estimated scf accuracy    <       0.00008614 Ry

     total magnetization       =     0.65 Bohr mag/cell
     absolute magnetization    =     0.66 Bohr mag/cell

     iteration # 32     ecut=   120.00 Ry     beta= 0.50
     Davidson diagonalization with overlap

---- Real-time Memory Report at c_bands before calling an iterative solver
           139 MiB given to the printing process from OS
             0 MiB allocation reported by mallinfo(arena+hblkhd)
         26525 MiB available memory on the node where the printing process lives
------------------
     c_bands:  1 eigenvalues not converged
     c_bands:  2 eigenvalues not converged
     c_bands:  2 eigenvalues not converged
     c_bands:  2 eigenvalues not converged
     c_bands:  1 eigenvalues not converged
     c_bands:  2 eigenvalues not converged
     c_bands:  1 eigenvalues not converged
     c_bands:  1 eigenvalues not converged
     c_bands:  2 eigenvalues not converged
     c_bands:  2 eigenvalues not converged
     c_bands:  1 eigenvalues not converged
     c_bands:  3 eigenvalues not converged
     c_bands:  1 eigenvalues not converged
     c_bands:  1 eigenvalues not converged
     c_bands:  1 eigenvalues not converged
     c_bands:  1 eigenvalues not converged
     c_bands:  1 eigenvalues not converged
     c_bands:  1 eigenvalues not converged
     ethr =  7.38E-08,  avg # of iterations = 11.7

     total cpu time spent up to now is      808.0 secs

     total energy              =    -517.49268006 Ry
     estimated scf accuracy    <       0.00007765 Ry

     total magnetization       =     0.56 Bohr mag/cell
     absolute magnetization    =     0.57 Bohr mag/cell

     iteration # 33     ecut=   120.00 Ry     beta= 0.50
     Davidson diagonalization with overlap

---- Real-time Memory Report at c_bands before calling an iterative solver
           139 MiB given to the printing process from OS
             0 MiB allocation reported by mallinfo(arena+hblkhd)
         26534 MiB available memory on the node where the printing process lives
------------------
     c_bands:  1 eigenvalues not converged
     c_bands:  2 eigenvalues not converged
     c_bands:  1 eigenvalues not converged
     c_bands:  2 eigenvalues not converged
     c_bands:  2 eigenvalues not converged
     c_bands:  2 eigenvalues not converged
     c_bands:  1 eigenvalues not converged
     c_bands:  1 eigenvalues not converged
     c_bands:  1 eigenvalues not converged
     c_bands:  3 eigenvalues not converged
     c_bands:  1 eigenvalues not converged
     c_bands:  2 eigenvalues not converged
     c_bands:  1 eigenvalues not converged
     c_bands:  1 eigenvalues not converged
     ethr =  7.38E-08,  avg # of iterations =  8.4

     total cpu time spent up to now is      827.6 secs

     total energy              =    -517.49269586 Ry
     estimated scf accuracy    <       0.00001625 Ry

     total magnetization       =     0.60 Bohr mag/cell
     absolute magnetization    =     0.62 Bohr mag/cell

     iteration # 34     ecut=   120.00 Ry     beta= 0.50
     Davidson diagonalization with overlap

---- Real-time Memory Report at c_bands before calling an iterative solver
           139 MiB given to the printing process from OS
             0 MiB allocation reported by mallinfo(arena+hblkhd)
         26529 MiB available memory on the node where the printing process lives
------------------
     c_bands:  1 eigenvalues not converged
     c_bands:  1 eigenvalues not converged
     c_bands:  2 eigenvalues not converged
     c_bands:  3 eigenvalues not converged
     c_bands:  2 eigenvalues not converged
     c_bands:  2 eigenvalues not converged
     c_bands:  2 eigenvalues not converged
     c_bands:  2 eigenvalues not converged
     c_bands:  4 eigenvalues not converged
     c_bands:  1 eigenvalues not converged
     c_bands:  2 eigenvalues not converged
     c_bands:  2 eigenvalues not converged
     c_bands:  3 eigenvalues not converged
     c_bands:  1 eigenvalues not converged
     c_bands:  4 eigenvalues not converged
     c_bands:  2 eigenvalues not converged
     c_bands:  1 eigenvalues not converged
     c_bands:  1 eigenvalues not converged
     c_bands:  1 eigenvalues not converged
     c_bands:  1 eigenvalues not converged
     c_bands:  1 eigenvalues not converged
     c_bands:  1 eigenvalues not converged
     c_bands:  2 eigenvalues not converged
     c_bands:  1 eigenvalues not converged
     ethr =  2.90E-08,  avg # of iterations = 14.4

     total cpu time spent up to now is      856.6 secs

     total energy              =    -517.49270262 Ry
     estimated scf accuracy    <       0.00011065 Ry

     total magnetization       =     0.59 Bohr mag/cell
     absolute magnetization    =     0.60 Bohr mag/cell

     iteration # 35     ecut=   120.00 Ry     beta= 0.50
     Davidson diagonalization with overlap

---- Real-time Memory Report at c_bands before calling an iterative solver
           139 MiB given to the printing process from OS
             0 MiB allocation reported by mallinfo(arena+hblkhd)
         26537 MiB available memory on the node where the printing process lives
------------------
     c_bands:  1 eigenvalues not converged
     c_bands:  1 eigenvalues not converged
     c_bands:  2 eigenvalues not converged
     c_bands:  2 eigenvalues not converged
     c_bands:  2 eigenvalues not converged
     c_bands:  1 eigenvalues not converged
     c_bands:  2 eigenvalues not converged
     c_bands:  2 eigenvalues not converged
     c_bands:  2 eigenvalues not converged
     c_bands:  1 eigenvalues not converged
     c_bands:  2 eigenvalues not converged
     c_bands:  2 eigenvalues not converged
     c_bands:  1 eigenvalues not converged
     c_bands:  1 eigenvalues not converged
     c_bands:  1 eigenvalues not converged
     c_bands:  2 eigenvalues not converged
     ethr =  2.90E-08,  avg # of iterations =  5.8

     total cpu time spent up to now is      873.8 secs

     total energy              =    -517.49270420 Ry
     estimated scf accuracy    <       0.00006520 Ry

     total magnetization       =     0.58 Bohr mag/cell
     absolute magnetization    =     0.60 Bohr mag/cell

     iteration # 36     ecut=   120.00 Ry     beta= 0.50
     Davidson diagonalization with overlap

---- Real-time Memory Report at c_bands before calling an iterative solver
           139 MiB given to the printing process from OS
             0 MiB allocation reported by mallinfo(arena+hblkhd)
         26538 MiB available memory on the node where the printing process lives
------------------
     c_bands:  1 eigenvalues not converged
     c_bands:  2 eigenvalues not converged
     c_bands:  2 eigenvalues not converged
     c_bands:  1 eigenvalues not converged
     c_bands:  2 eigenvalues not converged
     c_bands:  2 eigenvalues not converged
     c_bands:  1 eigenvalues not converged
     c_bands:  2 eigenvalues not converged
     c_bands:  2 eigenvalues not converged
     c_bands:  3 eigenvalues not converged
     c_bands:  2 eigenvalues not converged
     c_bands:  1 eigenvalues not converged
     c_bands:  1 eigenvalues not converged
     c_bands:  2 eigenvalues not converged
     ethr =  2.90E-08,  avg # of iterations = 11.2

     total cpu time spent up to now is      896.7 secs

     total energy              =    -517.49269414 Ry
     estimated scf accuracy    <       0.00001673 Ry

     total magnetization       =     0.56 Bohr mag/cell
     absolute magnetization    =     0.58 Bohr mag/cell

     iteration # 37     ecut=   120.00 Ry     beta= 0.50
     Davidson diagonalization with overlap

---- Real-time Memory Report at c_bands before calling an iterative solver
           139 MiB given to the printing process from OS
             0 MiB allocation reported by mallinfo(arena+hblkhd)
         26544 MiB available memory on the node where the printing process lives
------------------
     c_bands:  2 eigenvalues not converged
     c_bands:  2 eigenvalues not converged
     c_bands:  2 eigenvalues not converged
     c_bands:  4 eigenvalues not converged
     c_bands:  2 eigenvalues not converged
     c_bands:  2 eigenvalues not converged
     c_bands:  1 eigenvalues not converged
     c_bands:  2 eigenvalues not converged
     c_bands:  4 eigenvalues not converged
     c_bands:  2 eigenvalues not converged
     c_bands:  2 eigenvalues not converged
     c_bands:  2 eigenvalues not converged
     c_bands:  4 eigenvalues not converged
     c_bands:  3 eigenvalues not converged
     c_bands:  4 eigenvalues not converged
     c_bands:  4 eigenvalues not converged
     c_bands:  1 eigenvalues not converged
     c_bands:  2 eigenvalues not converged
     c_bands:  1 eigenvalues not converged
     c_bands:  4 eigenvalues not converged
     c_bands:  2 eigenvalues not converged
     c_bands:  1 eigenvalues not converged
     c_bands:  4 eigenvalues not converged
     c_bands:  2 eigenvalues not converged
     c_bands:  3 eigenvalues not converged
     c_bands:  2 eigenvalues not converged
     c_bands:  2 eigenvalues not converged
     c_bands:  2 eigenvalues not converged
     c_bands:  2 eigenvalues not converged
     c_bands:  2 eigenvalues not converged
     c_bands:  2 eigenvalues not converged
     c_bands:  2 eigenvalues not converged
     c_bands:  1 eigenvalues not converged
     c_bands:  2 eigenvalues not converged
     c_bands:  1 eigenvalues not converged
     c_bands:  2 eigenvalues not converged
     c_bands:  2 eigenvalues not converged
     c_bands:  1 eigenvalues not converged
     c_bands:  2 eigenvalues not converged
     c_bands:  1 eigenvalues not converged
     c_bands:  2 eigenvalues not converged
     c_bands:  2 eigenvalues not converged
     c_bands:  2 eigenvalues not converged
     c_bands:  4 eigenvalues not converged
     c_bands:  2 eigenvalues not converged
     c_bands:  3 eigenvalues not converged
     c_bands:  3 eigenvalues not converged
     c_bands:  3 eigenvalues not converged
     c_bands:  2 eigenvalues not converged
     c_bands:  3 eigenvalues not converged
     c_bands:  3 eigenvalues not converged
     c_bands:  1 eigenvalues not converged
     c_bands:  1 eigenvalues not converged
     c_bands:  1 eigenvalues not converged
     c_bands:  2 eigenvalues not converged
     c_bands:  1 eigenvalues not converged
     c_bands:  2 eigenvalues not converged
     ethr =  2.90E-08,  avg # of iterations = 19.2

     total cpu time spent up to now is      942.7 secs

     total energy              =    -517.49269889 Ry
     estimated scf accuracy    <       0.00175431 Ry

     total magnetization       =     0.63 Bohr mag/cell
     absolute magnetization    =     0.64 Bohr mag/cell

     iteration # 38     ecut=   120.00 Ry     beta= 0.50
     Davidson diagonalization with overlap

---- Real-time Memory Report at c_bands before calling an iterative solver
           140 MiB given to the printing process from OS
             0 MiB allocation reported by mallinfo(arena+hblkhd)
         26540 MiB available memory on the node where the printing process lives
------------------
     c_bands:  2 eigenvalues not converged
     c_bands:  1 eigenvalues not converged
     c_bands:  1 eigenvalues not converged
     c_bands:  2 eigenvalues not converged
     c_bands:  1 eigenvalues not converged
     c_bands:  2 eigenvalues not converged
[...]
    22.6734  23.0633  23.0642  23.2595  23.5963  23.5968  23.6902  23.7093

     occupation numbers 
     1.0000   1.0000   1.0000   1.0000   1.0000   1.0000   1.0000   1.0000
     1.0000   1.0000   1.0000   1.0000   1.0000   1.0000   1.0000   1.0000
     1.0000   1.0000   1.0000   1.0000   1.0013   1.0484   1.0722   1.0722
     1.0632   0.8224   0.8216   0.6155   0.2741   0.2736   0.2028   0.1899

          k = 0.3333 0.1672 0.3343 ( 13001 PWs)   bands (ev):

   -20.2554 -19.9659 -19.9630 -19.8824   2.5502   2.6343   2.6385   3.5012
     4.1332   4.7611   4.7637   5.5153   5.5337   5.5404   5.8778   6.3414
    20.4025  20.5330  20.8167  20.8258  22.1377  22.1544  22.3524  22.7228
    22.7358  22.8190  23.0350  23.2092  23.5495  23.5720  23.7024  23.7107

     occupation numbers 
     1.0000   1.0000   1.0000   1.0000   1.0000   1.0000   1.0000   1.0000
     1.0000   1.0000   1.0000   1.0000   1.0000   1.0000   1.0000   1.0000
     1.0000   1.0000   1.0000   1.0000   1.0464   1.0487   1.0745   1.0487
     1.0442   1.0073   0.8490   0.6710   0.3144   0.2947   0.1945   0.1890

          k = 0.3333 0.1672-0.5015 ( 12994 PWs)   bands (ev):

   -20.1105 -20.1100 -19.9234 -19.9229   2.5052   2.5054   2.9145   2.9145
     4.4263   4.4267   5.3866   5.3868   5.6320   5.6321   6.0262   6.0264
    20.9461  20.9463  21.1265  21.1265  21.9559  21.9560  21.9675  21.9676
    22.9221  22.9224  23.2425  23.2426  23.6173  23.6180  23.7103  23.7103

     occupation numbers 
     1.0000   1.0000   1.0000   1.0000   1.0000   1.0000   1.0000   1.0000
     1.0000   1.0000   1.0000   1.0000   1.0000   1.0000   1.0000   1.0000
     1.0000   1.0000   1.0002   1.0002   1.0249   1.0249   1.0261   1.0261
     0.9426   0.9424   0.6343   0.6342   0.2570   0.2564   0.1893   0.1893

          k = 0.3333 0.3343 0.3343 ( 12994 PWs)   bands (ev):

   -20.1763 -19.9626 -19.9614 -19.9601   2.2481   2.2483   2.2517   2.8071
     5.1051   5.1168   5.1178   5.6837   5.6845   5.7013   6.1569   6.1730
    19.9922  20.6854  20.6855  20.6914  21.9226  21.9229  21.9229  22.3789
    23.2173  23.2178  23.2262  23.6164  23.6173  23.6224  23.6237  23.6298

     occupation numbers 
     1.0000   1.0000   1.0000   1.0000   1.0000   1.0000   1.0000   1.0000
     1.0000   1.0000   1.0000   1.0000   1.0000   1.0000   1.0000   1.0000
     1.0000   1.0000   1.0000   1.0000   1.0218   1.0218   1.0218   1.0772
     0.6621   0.6615   0.6523   0.2577   0.2570   0.2529   0.2518   0.2471

          k = 0.3333 0.3343-0.5015 ( 12990 PWs)   bands (ev):

   -20.0687 -20.0682 -19.9605 -19.9600   2.0954   2.0956   2.3444   2.3445
     5.2162   5.2166   5.8002   5.8003   5.8924   5.8924   5.9208   5.9212
    20.2524  20.2525  20.8713  20.8713  21.5411  21.5411  22.0206  22.0206
    23.4023  23.4028  23.4200  23.4201  23.5912  23.5918  23.6460  23.6461

     occupation numbers 
     1.0000   1.0000   1.0000   1.0000   1.0000   1.0000   1.0000   1.0000
     1.0000   1.0000   1.0000   1.0000   1.0000   1.0000   1.0000   1.0000
     1.0000   1.0000   1.0000   1.0000   1.0032   1.0032   1.0318   1.0318
     0.4594   0.4588   0.4407   0.4407   0.2783   0.2778   0.2346   0.2345

          k = 0.3333-0.5015-0.5015 ( 12964 PWs)   bands (ev):

   -20.0144 -20.0134 -20.0125 -20.0125   2.0358   2.0358   2.0358   2.0361
     5.6774   5.6780   5.6784   5.6784   6.0179   6.0179   6.0188   6.0189
    20.2275  20.2277  20.2278  20.2278  21.8935  21.8935  21.8936  21.8936
    23.5344  23.5344  23.5357  23.5358  23.5609  23.5619  23.5621  23.5621

     occupation numbers 
     1.0000   1.0000   1.0000   1.0000   1.0000   1.0000   1.0000   1.0000
     1.0000   1.0000   1.0000   1.0000   1.0000   1.0000   1.0000   1.0000
     1.0000   1.0000   1.0000   1.0000   1.0193   1.0193   1.0193   1.0193
     0.3282   0.3282   0.3269   0.3268   0.3043   0.3034   0.3033   0.3033

          k =-0.5000 0.0000 0.0000 ( 13022 PWs)   bands (ev):

   -20.2375 -20.2361 -19.7991 -19.7977   3.3302   3.3302   3.3311   3.3311
     4.0297   4.0310   4.6335   4.6349   5.6834   5.6834   5.6843   5.6843
    20.6987  20.6991  20.8949  20.8951  21.4529  21.4531  22.7304  22.7304
    22.7313  22.7313  22.7508  22.7522  23.5251  23.5259  23.9590  23.9592

     occupation numbers 
     1.0000   1.0000   1.0000   1.0000   1.0000   1.0000   1.0000   1.0000
     1.0000   1.0000   1.0000   1.0000   1.0000   1.0000   1.0000   1.0000
     1.0000   1.0000   1.0000   1.0000   1.0019   1.0019   1.0461   1.0461
     1.0458   1.0458   1.0385   1.0380   0.3367   0.3360   0.0706   0.0705

          k =-0.5000 0.0000 0.1672 ( 12992 PWs)   bands (ev):

   -20.2082 -20.2068 -19.8286 -19.8271   3.1344   3.1349   3.4590   3.4599
     3.7711   3.7721   4.9850   4.9860   5.4856   5.4865   5.8592   5.8597
    21.0334  21.0338  21.1908  21.1909  21.2455  21.2457  22.6940  22.6951
    22.7706  22.7714  22.9115  22.9116  23.2251  23.2261  23.9604  23.9606

     occupation numbers 
     1.0000   1.0000   1.0000   1.0000   1.0000   1.0000   1.0000   1.0000
     1.0000   1.0000   1.0000   1.0000   1.0000   1.0000   1.0000   1.0000
     1.0001   1.0001   1.0003   1.0003   1.0004   1.0005   1.0577   1.0574
     1.0304   1.0301   0.9502   0.9501   0.6535   0.6524   0.0702   0.0701

          k =-0.5000 0.0000 0.3343 ( 12986 PWs)   bands (ev):

   -20.1282 -20.1268 -19.9089 -19.9075   2.9354   2.9354   3.3155   3.3160
     3.8268   3.8277   4.9845   4.9854   5.5803   5.5809   6.0676   6.0676
    20.9847  20.9848  21.8416  21.8418  21.9000  21.9003  22.2070  22.2076
    22.7978  22.7986  22.8496  22.8501  23.7117  23.7132  23.7375  23.7390

     occupation numbers 
     1.0000   1.0000   1.0000   1.0000   1.0000   1.0000   1.0000   1.0000
     1.0000   1.0000   1.0000   1.0000   1.0000   1.0000   1.0000   1.0000
     1.0001   1.0001   1.0154   1.0154   1.0199   1.0199   1.0559   1.0560
     1.0180   1.0176   0.9902   0.9900   0.1883   0.1874   0.1719   0.1711

          k =-0.5000 0.0000-0.5015 ( 12976 PWs)   bands (ev):

   -20.0192 -20.0181 -20.0172 -20.0172   2.9932   2.9935   2.9937   2.9939
     4.3730   4.3738   4.3742   4.3743   5.9937   5.9941   5.9942   5.9944
    21.2470  21.2471  21.2471  21.2473  22.6329  22.6329  22.6331  22.6331
    22.7746  22.7747  22.7750  22.7752  23.5070  23.5080  23.5092  23.5093

     occupation numbers 
     1.0000   1.0000   1.0000   1.0000   1.0000   1.0000   1.0000   1.0000
     1.0000   1.0000   1.0000   1.0000   1.0000   1.0000   1.0000   1.0000
     1.0005   1.0005   1.0005   1.0005   1.0719   1.0719   1.0719   1.0718
     1.0286   1.0286   1.0285   1.0284   0.3537   0.3528   0.3516   0.3515

          k =-0.5000 0.1672 0.1672 ( 13008 PWs)   bands (ev):

   -20.1825 -20.1811 -19.8536 -19.8522   2.7632   2.7635   3.4503   3.4509
     3.9013   3.9022   5.1817   5.1826   5.6989   5.6990   5.7652   5.7660
    20.7792  20.7796  21.1748  21.1749  21.9236  21.9237  22.2233  22.2237
    22.6475  22.6476  23.0912  23.0914  23.3998  23.4012  23.8833  23.8836

     occupation numbers 
     1.0000   1.0000   1.0000   1.0000   1.0000   1.0000   1.0000   1.0000
     1.0000   1.0000   1.0000   1.0000   1.0000   1.0000   1.0000   1.0000
     1.0000   1.0000   1.0003   1.0003   1.0219   1.0219   1.0582   1.0582
     1.0691   1.0690   0.7951   0.7949   0.4620   0.4605   0.0979   0.0977

          k =-0.5000 0.1672 0.3343 ( 12992 PWs)   bands (ev):

   -20.1124 -20.1110 -19.9224 -19.9210   2.5032   2.5034   2.9176   2.9179
     4.4231   4.4239   5.3890   5.3895   5.6322   5.6328   6.0282   6.0283
    20.9512  20.9515  21.1174  21.1175  21.9504  21.9506  21.9543  21.9546
    22.9322  22.9329  23.2348  23.2350  23.6118  23.6135  23.7110  23.7111

     occupation numbers 
     1.0000   1.0000   1.0000   1.0000   1.0000   1.0000   1.0000   1.0000
     1.0000   1.0000   1.0000   1.0000   1.0000   1.0000   1.0000   1.0000
     1.0000   1.0000   1.0002   1.0002   1.0244   1.0244   1.0248   1.0248
     0.9352   0.9346   0.6427   0.6426   0.2614   0.2600   0.1888   0.1887

          k =-0.5000 0.1672-0.5015 ( 12968 PWs)   bands (ev):

   -20.0176 -20.0166 -20.0156 -20.0156   2.5579   2.5580   2.5582   2.5583
     4.9250   4.9255   4.9258   4.9259   5.9967   5.9970   5.9971   5.9974
    21.1477  21.1477  21.1478  21.1479  21.7659  21.7659  21.7659  21.7660
    23.3426  23.3426  23.3429  23.3431  23.5269  23.5277  23.5287  23.5289

     occupation numbers 
     1.0000   1.0000   1.0000   1.0000   1.0000   1.0000   1.0000   1.0000
     1.0000   1.0000   1.0000   1.0000   1.0000   1.0000   1.0000   1.0000
     1.0002   1.0002   1.0002   1.0002   1.0108   1.0108   1.0108   1.0108
     0.5237   0.5236   0.5233   0.5232   0.3351   0.3343   0.3334   0.3332

          k =-0.5000 0.3343 0.3343 ( 12996 PWs)   bands (ev):

   -20.0700 -20.0686 -19.9602 -19.9588   2.0951   2.0953   2.3479   2.3479
     5.2235   5.2244   5.7891   5.7898   5.8797   5.8803   5.9337   5.9346
    20.2548  20.2551  20.8641  20.8641  21.5364  21.5364  22.0152  22.0154
    23.4080  23.4093  23.4182  23.4182  23.5852  23.5868  23.6499  23.6504

     occupation numbers 
     1.0000   1.0000   1.0000   1.0000   1.0000   1.0000   1.0000   1.0000
     1.0000   1.0000   1.0000   1.0000   1.0000   1.0000   1.0000   1.0000
     1.0000   1.0000   1.0000   1.0000   1.0031   1.0031   1.0311   1.0312
     0.4533   0.4520   0.4426   0.4426   0.2834   0.2820   0.2317   0.2314

          k =-0.5000 0.3343-0.5015 ( 12984 PWs)   bands (ev):

   -20.0145 -20.0135 -20.0125 -20.0125   2.0376   2.0377   2.0377   2.0380
     5.6907   5.6911   5.6913   5.6915   6.0026   6.0029   6.0031   6.0033
    20.2271  20.2274  20.2274  20.2274  21.8907  21.8907  21.8907  21.8907
    23.5397  23.5398  23.5402  23.5404  23.5568  23.5574  23.5582  23.5584

     occupation numbers 
     1.0000   1.0000   1.0000   1.0000   1.0000   1.0000   1.0000   1.0000
     1.0000   1.0000   1.0000   1.0000   1.0000   1.0000   1.0000   1.0000
     1.0000   1.0000   1.0000   1.0000   1.0191   1.0191   1.0191   1.0191
     0.3233   0.3232   0.3228   0.3227   0.3080   0.3074   0.3067   0.3065

          k =-0.5000-0.5015-0.5015 ( 12952 PWs)   bands (ev):

   -20.0129 -20.0119 -20.0110 -20.0110   1.8429   1.8429   1.8429   1.8432
     5.9999   6.0005   6.0009   6.0009   6.0207   6.0207   6.0216   6.0217
    19.7845  19.7847  19.7847  19.7847  22.0844  22.0844  22.0845  22.0845
    23.5678  23.5678  23.5694  23.5695  23.5712  23.5722  23.5722  23.5722

     occupation numbers 
     1.0000   1.0000   1.0000   1.0000   1.0000   1.0000   1.0000   1.0000
     1.0000   1.0000   1.0000   1.0000   1.0000   1.0000   1.0000   1.0000
     1.0000   1.0000   1.0000   1.0000   1.0394   1.0394   1.0394   1.0394
     0.2983   0.2983   0.2969   0.2968   0.2953   0.2945   0.2945   0.2945

     the Fermi energy is    23.4591 ev

!    total energy              =    -517.49271938 Ry
     estimated scf accuracy    <          5.8E-09 Ry
     smearing contrib. (-TS)   =      -0.04605484 Ry
     internal energy E=F+TS    =    -517.44666454 Ry

     The total energy is F=E-TS. E is the sum of the following terms:
     one-electron contribution =      41.64920075 Ry
     hartree contribution      =      37.20031706 Ry
     xc contribution           =    -166.61066715 Ry
     ewald contribution        =    -429.68551520 Ry

     total magnetization       =     0.00 Bohr mag/cell
     absolute magnetization    =     0.01 Bohr mag/cell

     convergence has been achieved in 169 iterations

     Forces acting on atoms (cartesian axes, Ry/au):

     atom    1 type  1   force =     0.00000000    0.00000000    0.00000000
     atom    2 type  1   force =     0.00000000    0.00000000    0.00000000
     atom    3 type  1   force =     0.00000000    0.00000000    0.00000000
     atom    4 type  1   force =     0.00000000    0.00000000    0.00000000
     The non-local contrib.  to forces
     atom    1 type  1   force =     0.00000000    0.00000000    0.00000000
     atom    2 type  1   force =     0.00000000    0.00000000    0.00000000
     atom    3 type  1   force =     0.00000000    0.00000000    0.00000000
     atom    4 type  1   force =     0.00000000    0.00000000    0.00000000
     The ionic contribution  to forces
     atom    1 type  1   force =    -0.00000000   -0.00000000   -0.00000000
     atom    2 type  1   force =     0.00000000    0.00000000   -0.00000000
     atom    3 type  1   force =     0.00000000   -0.00000000    0.00000000
     atom    4 type  1   force =    -0.00000000    0.00000000    0.00000000
     The local contribution  to forces
     atom    1 type  1   force =     0.00000000   -0.00000000    0.00000000
     atom    2 type  1   force =     0.00000000    0.00000000    0.00000000
     atom    3 type  1   force =     0.00000000   -0.00000000    0.00000000
     atom    4 type  1   force =     0.00000000    0.00000000    0.00000000
     The core correction contribution to forces
     atom    1 type  1   force =     0.00000000    0.00000000    0.00000000
     atom    2 type  1   force =    -0.00000000   -0.00000000    0.00000000
     atom    3 type  1   force =    -0.00000000    0.00000000   -0.00000000
     atom    4 type  1   force =     0.00000000    0.00000000    0.00000000
     The Hubbard contrib.    to forces
     atom    1 type  1   force =     0.00000000    0.00000000    0.00000000
     atom    2 type  1   force =     0.00000000    0.00000000    0.00000000
     atom    3 type  1   force =     0.00000000    0.00000000    0.00000000
     atom    4 type  1   force =     0.00000000    0.00000000    0.00000000
     The SCF correction term to forces
     atom    1 type  1   force =    -0.00000000   -0.00000000   -0.00000000
     atom    2 type  1   force =     0.00000000   -0.00000000   -0.00000000
     atom    3 type  1   force =     0.00000000   -0.00000000   -0.00000000
     atom    4 type  1   force =    -0.00000000   -0.00000000    0.00000000

     Total force =     0.000000     Total SCF correction =     0.000000


     Computing stress (Cartesian axis) and pressure

          total   stress  (Ry/bohr**3)                   (kbar)     P=       -3.82
  -0.00000490   0.00000000   0.00000000           -0.72        0.00        0.00
   0.00000000  -0.00003652   0.00000000            0.00       -5.37        0.00
   0.00000000   0.00000000  -0.00003652            0.00        0.00       -5.37

     kinetic stress (kbar)  31422.64      0.00      0.00
                                0.00  31403.02      0.00
                                0.00      0.00  31403.02

     local   stress (kbar)   8543.55      0.00     -0.00
                                0.00   8535.07     -0.00
                               -0.00     -0.00   8535.07

     nonloc. stress (kbar)   -526.71      0.00      0.00
                                0.00   -519.51      0.00
                                0.00      0.00   -519.51

     hartree stress (kbar)   3115.47     -0.00      0.00
                               -0.00   3116.06      0.00
                                0.00      0.00   3116.06

     exc-cor stress (kbar)  21144.58      0.00      0.00
                                0.00  21144.56     -0.00
                                0.00     -0.00  21144.56

     corecor stress (kbar) -27699.98     -0.00      0.00
                               -0.00 -27699.63      0.00
                               -0.00      0.00 -27699.63

     ewald   stress (kbar) -36000.27      0.00     -0.00
                                0.00 -35984.94      0.00
                               -0.00      0.00 -35984.94

     hubbard stress (kbar)      0.00      0.00      0.00
                                0.00      0.00      0.00
                                0.00      0.00      0.00

     DFT-D   stress (kbar)      0.00      0.00      0.00
                                0.00      0.00      0.00
                                0.00      0.00      0.00

     XDM     stress (kbar)      0.00      0.00      0.00
                                0.00      0.00      0.00
                                0.00      0.00      0.00

     dft-nl  stress (kbar)      0.00      0.00      0.00
                                0.00      0.00      0.00
                                0.00      0.00      0.00

     TS-vdW  stress (kbar)      0.00      0.00      0.00
                                0.00      0.00      0.00
                                0.00      0.00      0.00


                                0.00      0.00      0.00
                                0.00      0.00      0.00


                                0.00      0.00      0.00


     Writing output data file ./Uranium.save/

     init_run     :      6.63s CPU      6.88s WALL (       1 calls)
     electrons    :   7514.27s CPU   7657.57s WALL (       1 calls)
     forces       :      4.56s CPU      4.71s WALL (       1 calls)
     stress       :      8.62s CPU      8.93s WALL (       1 calls)

     Called by init_run:
     wfcinit      :      4.81s CPU      4.93s WALL (       1 calls)
     wfcinit:wfcr :      4.53s CPU      4.64s WALL (      80 calls)
     potinit      :      0.40s CPU      0.41s WALL (       1 calls)
     hinit0       :      0.67s CPU      0.69s WALL (       1 calls)

     Called by electrons:
     c_bands      :   7005.13s CPU   7112.75s WALL (     169 calls)
     sum_band     :    405.63s CPU    426.71s WALL (     169 calls)
     v_of_rho     :     21.11s CPU     21.34s WALL (     170 calls)
     v_h          :      0.45s CPU      0.45s WALL (     170 calls)
     v_xc         :     20.89s CPU     21.12s WALL (     172 calls)
     newd         :     78.49s CPU     92.65s WALL (     170 calls)
     mix_rho      :      2.79s CPU      2.95s WALL (     169 calls)

     Called by c_bands:
     init_us_2    :     20.99s CPU     21.47s WALL (   27280 calls)
     cegterg      :   6882.25s CPU   6987.54s WALL (   15166 calls)

     Called by sum_band:
     sum_band:wei :      1.45s CPU      1.47s WALL (     169 calls)
     sum_band:loo :    293.45s CPU    299.22s WALL (     169 calls)
     sum_band:buf :      1.16s CPU      1.22s WALL (   13520 calls)
     sum_band:ini :      9.28s CPU      9.56s WALL (   13520 calls)
     sum_band:cal :    105.95s CPU    107.51s WALL (   13520 calls)
     sum_band:bec :      8.36s CPU      8.43s WALL (   13520 calls)
     addusdens    :     95.93s CPU    110.35s WALL (     169 calls)
     addusd:skk   :      0.06s CPU      0.06s WALL (     169 calls)
     addusd:dgemm :     26.07s CPU     36.96s WALL (     338 calls)
     addusd:qvan2 :     64.90s CPU     65.42s WALL (     338 calls)

     Called by *egterg:
     cdiaghg      :    943.96s CPU    948.81s WALL (  260373 calls)
     cegterg:over :    783.18s CPU    801.75s WALL (  245207 calls)
     cegterg:upda :    169.79s CPU    171.00s WALL (  245207 calls)
     cegterg:last :    603.66s CPU    606.12s WALL (   82905 calls)
     h_psi        :   3427.99s CPU   3490.72s WALL (  260453 calls)
     s_psi        :    535.89s CPU    539.22s WALL (  260453 calls)
     g_psi        :      9.98s CPU     10.10s WALL (  245207 calls)

     Called by h_psi:
     h_psi:calbec :    705.01s CPU    717.81s WALL (  260453 calls)
     vloc_psi     :   2181.84s CPU   2228.95s WALL (  260453 calls)
     add_vuspsi   :    534.42s CPU    537.31s WALL (  260453 calls)

     General routines
     calbec       :    814.08s CPU    828.81s WALL (  274373 calls)
     fft          :     10.69s CPU     10.89s WALL (    4288 calls)
     ffts         :      0.53s CPU      0.54s WALL (     678 calls)
     fftw         :   2250.14s CPU   2298.88s WALL ( 5946774 calls)
     interpolate  :      1.03s CPU      1.05s WALL (     340 calls)

     Parallel routines

     PWSCF        :      2h 5m CPU      2h 8m WALL


   This run was terminated on:   5:52:32   9Dec2021            

=------------------------------------------------------------------------------=
   JOB DONE.
=------------------------------------------------------------------------------=
