
     Program PWSCF v.6.8 starts on  8Dec2021 at 12:38:31 

     This program is part of the open-source Quantum ESPRESSO suite
     for quantum simulation of materials; please cite
         "P. Giannozzi et al., J. Phys.:Condens. Matter 21 395502 (2009);
         "P. Giannozzi et al., J. Phys.:Condens. Matter 29 465901 (2017);
         "P. Giannozzi et al., J. Chem. Phys. 152 154105 (2020);
          URL http://www.quantum-espresso.org", 
     in publications or presentations arising from this work. More details at
     http://www.quantum-espresso.org/quote

     Parallel version (MPI), running on    32 processors

     MPI processes distributed on     1 nodes
     R & G space division:  proc/nbgrp/npool/nimage =      32
     29497 MiB available memory on the printing compute node when the environment starts

     Reading input from runc1.in
Warning: card &CELL ignored
Warning: card    CELL_DYNAMICS = 'BFGS' , ignored
Warning: card    CELL_DOFREE = 'ALL', ignored
Warning: card    PRESS_CONV_THR = 0.5 , ! THIS IS THE DEFAULT ignored
Warning: card  / ignored

     Current dimensions of program PWSCF are:
     Max number of different atomic species (ntypx) = 10
     Max number of k-points (npk) =  40000
     Max angular momentum in pseudopotentials (lmaxx) =  4
     file U.pbe-spfn-rrkjus_psl.1.0.0.UPF: wavefunction(s)  5F renormalized
     Found symmetry operation: I + ( -0.5000  0.5000  0.0000)
     This is a supercell, fractional translations are disabled
     Message from routine setup:
     using ibrav=0 with symmetry is DISCOURAGED, use correct ibrav instead

     Subspace diagonalization in iterative solution of the eigenvalue problem:
     a serial algorithm will be used


     Parallelization info
     --------------------
     sticks:   dense  smooth     PW     G-vecs:    dense   smooth      PW
     Min         111      55     15                 5019     1769     269
     Max         112      56     16                 5024     1772     276
     Sum        3569    1781    509               160707    56667    8733

     Using Slab Decomposition



     bravais-lattice index     =            0
     lattice parameter (alat)  =       8.3778  a.u.
     unit-cell volume          =     588.0141 (a.u.)^3
     number of atoms/cell      =            4
     number of atomic types    =            1
     number of electrons       =        56.00
     number of Kohn-Sham states=           32
     kinetic-energy cutoff     =      80.0000  Ry
     charge density cutoff     =     640.0000  Ry
     scf convergence threshold =      1.0E-08
     mixing beta               =       0.5000
     number of iterations used =            8  plain     mixing
     Exchange-correlation= PBE
                           (   1   4   3   4   0   0   0)

     celldm(1)=   8.377785  celldm(2)=   0.000000  celldm(3)=   0.000000
     celldm(4)=   0.000000  celldm(5)=   0.000000  celldm(6)=   0.000000

     crystal axes: (cart. coord. in units of alat)
               a(1) = (   1.000000   0.000000   0.000000 )  
               a(2) = (   0.000000   1.000000   0.000000 )  
               a(3) = (   0.000000   0.000000   1.000000 )  

     reciprocal axes: (cart. coord. in units 2 pi/alat)
               b(1) = (  1.000000  0.000000  0.000000 )  
               b(2) = (  0.000000  1.000000  0.000000 )  
               b(3) = (  0.000000  0.000000  1.000000 )  


     PseudoPot. # 1 for U  read from file:
     /home/myhawary/QE/runs/pseudo/U.pbe-spfn-rrkjus_psl.1.0.0.UPF
     MD5 check sum: b50a7459bb2a1ad67e79ea3a31ec714c
     Pseudo is Ultrasoft + core correction, Zval = 14.0
     Generated using &quot;atomic&quot; code by A. Dal Corso  v.6.2.2
     Using radial grid of 1291 points,  8 beta functions with: 
                l(1) =   0
                l(2) =   0
                l(3) =   1
                l(4) =   1
                l(5) =   2
                l(6) =   2
                l(7) =   3
                l(8) =   3
     Q(r) pseudized with 0 coefficients 


     atomic species   valence    mass     pseudopotential
        U             14.00   238.00000     U ( 1.00)

     Starting magnetic structure 
     atomic species   magnetization
        U            0.100

     48 Sym. Ops., with inversion, found


                                    s                        frac. trans.

      isym =  1     identity                                     

 cryst.   s( 1) = (     1          0          0      )
                  (     0          1          0      )
                  (     0          0          1      )

 cart.    s( 1) = (  1.0000000  0.0000000  0.0000000 )
                  (  0.0000000  1.0000000  0.0000000 )
                  (  0.0000000  0.0000000  1.0000000 )


      isym =  2     180 deg rotation - cart. axis [0,0,1]        

 cryst.   s( 2) = (    -1          0          0      )
                  (     0         -1          0      )
                  (     0          0          1      )

 cart.    s( 2) = ( -1.0000000  0.0000000  0.0000000 )
                  (  0.0000000 -1.0000000  0.0000000 )
                  (  0.0000000  0.0000000  1.0000000 )


      isym =  3     180 deg rotation - cart. axis [0,1,0]        

 cryst.   s( 3) = (    -1          0          0      )
                  (     0          1          0      )
                  (     0          0         -1      )

 cart.    s( 3) = ( -1.0000000  0.0000000  0.0000000 )
                  (  0.0000000  1.0000000  0.0000000 )
                  (  0.0000000  0.0000000 -1.0000000 )


      isym =  4     180 deg rotation - cart. axis [1,0,0]        

 cryst.   s( 4) = (     1          0          0      )
                  (     0         -1          0      )
                  (     0          0         -1      )

 cart.    s( 4) = (  1.0000000  0.0000000  0.0000000 )
                  (  0.0000000 -1.0000000  0.0000000 )
                  (  0.0000000  0.0000000 -1.0000000 )


      isym =  5     180 deg rotation - cart. axis [1,1,0]        

 cryst.   s( 5) = (     0          1          0      )
                  (     1          0          0      )
                  (     0          0         -1      )

 cart.    s( 5) = (  0.0000000  0.9999999  0.0000000 )
                  (  1.0000001  0.0000000  0.0000000 )
                  (  0.0000000  0.0000000 -1.0000000 )


      isym =  6     180 deg rotation - cart. axis [1,-1,0]       

 cryst.   s( 6) = (     0         -1          0      )
                  (    -1          0          0      )
                  (     0          0         -1      )

 cart.    s( 6) = (  0.0000000 -0.9999999  0.0000000 )
                  ( -1.0000001  0.0000000  0.0000000 )
                  (  0.0000000  0.0000000 -1.0000000 )


      isym =  7      90 deg rotation - cart. axis [0,0,-1]       

 cryst.   s( 7) = (     0         -1          0      )
                  (     1          0          0      )
                  (     0          0          1      )

 cart.    s( 7) = (  0.0000000  0.9999999  0.0000000 )
                  ( -1.0000001  0.0000000  0.0000000 )
                  (  0.0000000  0.0000000  1.0000000 )


      isym =  8      90 deg rotation - cart. axis [0,0,1]        

 cryst.   s( 8) = (     0          1          0      )
                  (    -1          0          0      )
                  (     0          0          1      )

 cart.    s( 8) = (  0.0000000 -0.9999999  0.0000000 )
                  (  1.0000001  0.0000000  0.0000000 )
                  (  0.0000000  0.0000000  1.0000000 )


      isym =  9     180 deg rotation - cart. axis [1,0,1]        

 cryst.   s( 9) = (     0          0          1      )
                  (     0         -1          0      )
                  (     1          0          0      )

 cart.    s( 9) = (  0.0000000  0.0000000  0.9999999 )
                  (  0.0000000 -1.0000000  0.0000000 )
                  (  1.0000001  0.0000000  0.0000000 )


      isym = 10     180 deg rotation - cart. axis [-1,0,1]       

 cryst.   s(10) = (     0          0         -1      )
                  (     0         -1          0      )
                  (    -1          0          0      )

 cart.    s(10) = (  0.0000000  0.0000000 -0.9999999 )
                  (  0.0000000 -1.0000000  0.0000000 )
                  ( -1.0000001  0.0000000  0.0000000 )


      isym = 11      90 deg rotation - cart. axis [0,1,0]        

 cryst.   s(11) = (     0          0         -1      )
                  (     0          1          0      )
                  (     1          0          0      )

 cart.    s(11) = (  0.0000000  0.0000000  0.9999999 )
                  (  0.0000000  1.0000000  0.0000000 )
                  ( -1.0000001  0.0000000  0.0000000 )


      isym = 12      90 deg rotation - cart. axis [0,-1,0]       

 cryst.   s(12) = (     0          0          1      )
                  (     0          1          0      )
                  (    -1          0          0      )

 cart.    s(12) = (  0.0000000  0.0000000 -0.9999999 )
                  (  0.0000000  1.0000000  0.0000000 )
                  (  1.0000001  0.0000000  0.0000000 )


      isym = 13     180 deg rotation - cart. axis [0,1,1]        

 cryst.   s(13) = (    -1          0          0      )
                  (     0          0          1      )
                  (     0          1          0      )

 cart.    s(13) = ( -1.0000000  0.0000000  0.0000000 )
                  (  0.0000000  0.0000000  1.0000000 )
                  (  0.0000000  1.0000000  0.0000000 )


      isym = 14     180 deg rotation - cart. axis [0,1,-1]       

 cryst.   s(14) = (    -1          0          0      )
                  (     0          0         -1      )
                  (     0         -1          0      )

 cart.    s(14) = ( -1.0000000  0.0000000  0.0000000 )
                  (  0.0000000  0.0000000 -1.0000000 )
                  (  0.0000000 -1.0000000  0.0000000 )


      isym = 15      90 deg rotation - cart. axis [-1,0,0]       

 cryst.   s(15) = (     1          0          0      )
                  (     0          0         -1      )
                  (     0          1          0      )

 cart.    s(15) = (  1.0000000  0.0000000  0.0000000 )
                  (  0.0000000  0.0000000  1.0000000 )
                  (  0.0000000 -1.0000000  0.0000000 )


      isym = 16      90 deg rotation - cart. axis [1,0,0]        

 cryst.   s(16) = (     1          0          0      )
                  (     0          0          1      )
                  (     0         -1          0      )

 cart.    s(16) = (  1.0000000  0.0000000  0.0000000 )
                  (  0.0000000  0.0000000 -1.0000000 )
                  (  0.0000000  1.0000000  0.0000000 )


      isym = 17     120 deg rotation - cart. axis [-1,-1,-1]     

 cryst.   s(17) = (     0          0          1      )
                  (     1          0          0      )
                  (     0          1          0      )

 cart.    s(17) = (  0.0000000  0.9999999  0.0000000 )
                  (  0.0000000  0.0000000  1.0000000 )
                  (  1.0000001  0.0000000  0.0000000 )


      isym = 18     120 deg rotation - cart. axis [-1,1,1]       

 cryst.   s(18) = (     0          0         -1      )
                  (    -1          0          0      )
                  (     0          1          0      )

 cart.    s(18) = (  0.0000000 -0.9999999  0.0000000 )
                  (  0.0000000  0.0000000  1.0000000 )
                  ( -1.0000001  0.0000000  0.0000000 )


      isym = 19     120 deg rotation - cart. axis [1,1,-1]       

 cryst.   s(19) = (     0          0         -1      )
                  (     1          0          0      )
                  (     0         -1          0      )

 cart.    s(19) = (  0.0000000  0.9999999  0.0000000 )
                  (  0.0000000  0.0000000 -1.0000000 )
                  ( -1.0000001  0.0000000  0.0000000 )


      isym = 20     120 deg rotation - cart. axis [1,-1,1]       

 cryst.   s(20) = (     0          0          1      )
                  (    -1          0          0      )
                  (     0         -1          0      )

 cart.    s(20) = (  0.0000000 -0.9999999  0.0000000 )
                  (  0.0000000  0.0000000 -1.0000000 )
                  (  1.0000001  0.0000000  0.0000000 )


      isym = 21     120 deg rotation - cart. axis [1,1,1]        

 cryst.   s(21) = (     0          1          0      )
                  (     0          0          1      )
                  (     1          0          0      )

 cart.    s(21) = (  0.0000000  0.0000000  0.9999999 )
                  (  1.0000001  0.0000000  0.0000000 )
                  (  0.0000000  1.0000000  0.0000000 )


      isym = 22     120 deg rotation - cart. axis [-1,1,-1]      

 cryst.   s(22) = (     0         -1          0      )
                  (     0          0         -1      )
                  (     1          0          0      )

 cart.    s(22) = (  0.0000000  0.0000000  0.9999999 )
                  ( -1.0000001  0.0000000  0.0000000 )
                  (  0.0000000 -1.0000000  0.0000000 )


      isym = 23     120 deg rotation - cart. axis [1,-1,-1]      

 cryst.   s(23) = (     0         -1          0      )
                  (     0          0          1      )
                  (    -1          0          0      )

 cart.    s(23) = (  0.0000000  0.0000000 -0.9999999 )
                  ( -1.0000001  0.0000000  0.0000000 )
                  (  0.0000000  1.0000000  0.0000000 )


      isym = 24     120 deg rotation - cart. axis [-1,-1,1]      

 cryst.   s(24) = (     0          1          0      )
                  (     0          0         -1      )
                  (    -1          0          0      )

 cart.    s(24) = (  0.0000000  0.0000000 -0.9999999 )
                  (  1.0000001  0.0000000  0.0000000 )
                  (  0.0000000 -1.0000000  0.0000000 )


      isym = 25     inversion                                    

 cryst.   s(25) = (    -1          0          0      )
                  (     0         -1          0      )
                  (     0          0         -1      )

 cart.    s(25) = ( -1.0000000  0.0000000  0.0000000 )
                  (  0.0000000 -1.0000000  0.0000000 )
                  (  0.0000000  0.0000000 -1.0000000 )


      isym = 26     inv. 180 deg rotation - cart. axis [0,0,1]   

 cryst.   s(26) = (     1          0          0      )
                  (     0          1          0      )
                  (     0          0         -1      )

 cart.    s(26) = (  1.0000000  0.0000000  0.0000000 )
                  (  0.0000000  1.0000000  0.0000000 )
                  (  0.0000000  0.0000000 -1.0000000 )


      isym = 27     inv. 180 deg rotation - cart. axis [0,1,0]   

 cryst.   s(27) = (     1          0          0      )
                  (     0         -1          0      )
                  (     0          0          1      )

 cart.    s(27) = (  1.0000000  0.0000000  0.0000000 )
                  (  0.0000000 -1.0000000  0.0000000 )
                  (  0.0000000  0.0000000  1.0000000 )


      isym = 28     inv. 180 deg rotation - cart. axis [1,0,0]   

 cryst.   s(28) = (    -1          0          0      )
                  (     0          1          0      )
                  (     0          0          1      )

 cart.    s(28) = ( -1.0000000  0.0000000  0.0000000 )
                  (  0.0000000  1.0000000  0.0000000 )
                  (  0.0000000  0.0000000  1.0000000 )


      isym = 29     inv. 180 deg rotation - cart. axis [1,1,0]   

 cryst.   s(29) = (     0         -1          0      )
                  (    -1          0          0      )
                  (     0          0          1      )

 cart.    s(29) = (  0.0000000 -0.9999999  0.0000000 )
                  ( -1.0000001  0.0000000  0.0000000 )
                  (  0.0000000  0.0000000  1.0000000 )


      isym = 30     inv. 180 deg rotation - cart. axis [1,-1,0]  

 cryst.   s(30) = (     0          1          0      )
                  (     1          0          0      )
                  (     0          0          1      )

 cart.    s(30) = (  0.0000000  0.9999999  0.0000000 )
                  (  1.0000001  0.0000000  0.0000000 )
                  (  0.0000000  0.0000000  1.0000000 )


      isym = 31     inv.  90 deg rotation - cart. axis [0,0,-1]  

 cryst.   s(31) = (     0          1          0      )
                  (    -1          0          0      )
                  (     0          0         -1      )

 cart.    s(31) = (  0.0000000 -0.9999999  0.0000000 )
                  (  1.0000001  0.0000000  0.0000000 )
                  (  0.0000000  0.0000000 -1.0000000 )


      isym = 32     inv.  90 deg rotation - cart. axis [0,0,1]   

 cryst.   s(32) = (     0         -1          0      )
                  (     1          0          0      )
                  (     0          0         -1      )

 cart.    s(32) = (  0.0000000  0.9999999  0.0000000 )
                  ( -1.0000001  0.0000000  0.0000000 )
                  (  0.0000000  0.0000000 -1.0000000 )


      isym = 33     inv. 180 deg rotation - cart. axis [1,0,1]   

 cryst.   s(33) = (     0          0         -1      )
                  (     0          1          0      )
                  (    -1          0          0      )

 cart.    s(33) = (  0.0000000  0.0000000 -0.9999999 )
                  (  0.0000000  1.0000000  0.0000000 )
                  ( -1.0000001  0.0000000  0.0000000 )


      isym = 34     inv. 180 deg rotation - cart. axis [-1,0,1]  

 cryst.   s(34) = (     0          0          1      )
                  (     0          1          0      )
                  (     1          0          0      )

 cart.    s(34) = (  0.0000000  0.0000000  0.9999999 )
                  (  0.0000000  1.0000000  0.0000000 )
                  (  1.0000001  0.0000000  0.0000000 )


      isym = 35     inv.  90 deg rotation - cart. axis [0,1,0]   

 cryst.   s(35) = (     0          0          1      )
                  (     0         -1          0      )
                  (    -1          0          0      )

 cart.    s(35) = (  0.0000000  0.0000000 -0.9999999 )
                  (  0.0000000 -1.0000000  0.0000000 )
                  (  1.0000001  0.0000000  0.0000000 )


      isym = 36     inv.  90 deg rotation - cart. axis [0,-1,0]  

 cryst.   s(36) = (     0          0         -1      )
                  (     0         -1          0      )
                  (     1          0          0      )

 cart.    s(36) = (  0.0000000  0.0000000  0.9999999 )
                  (  0.0000000 -1.0000000  0.0000000 )
                  ( -1.0000001  0.0000000  0.0000000 )


      isym = 37     inv. 180 deg rotation - cart. axis [0,1,1]   

 cryst.   s(37) = (     1          0          0      )
                  (     0          0         -1      )
                  (     0         -1          0      )

 cart.    s(37) = (  1.0000000  0.0000000  0.0000000 )
                  (  0.0000000  0.0000000 -1.0000000 )
                  (  0.0000000 -1.0000000  0.0000000 )


      isym = 38     inv. 180 deg rotation - cart. axis [0,1,-1]  

 cryst.   s(38) = (     1          0          0      )
                  (     0          0          1      )
                  (     0          1          0      )

 cart.    s(38) = (  1.0000000  0.0000000  0.0000000 )
                  (  0.0000000  0.0000000  1.0000000 )
                  (  0.0000000  1.0000000  0.0000000 )


      isym = 39     inv.  90 deg rotation - cart. axis [-1,0,0]  

 cryst.   s(39) = (    -1          0          0      )
                  (     0          0          1      )
                  (     0         -1          0      )

 cart.    s(39) = ( -1.0000000  0.0000000  0.0000000 )
                  (  0.0000000  0.0000000 -1.0000000 )
                  (  0.0000000  1.0000000  0.0000000 )


      isym = 40     inv.  90 deg rotation - cart. axis [1,0,0]   

 cryst.   s(40) = (    -1          0          0      )
                  (     0          0         -1      )
                  (     0          1          0      )

 cart.    s(40) = ( -1.0000000  0.0000000  0.0000000 )
                  (  0.0000000  0.0000000  1.0000000 )
                  (  0.0000000 -1.0000000  0.0000000 )


      isym = 41     inv. 120 deg rotation - cart. axis [-1,-1,-1]

 cryst.   s(41) = (     0          0         -1      )
                  (    -1          0          0      )
                  (     0         -1          0      )

 cart.    s(41) = (  0.0000000 -0.9999999  0.0000000 )
                  (  0.0000000  0.0000000 -1.0000000 )
                  ( -1.0000001  0.0000000  0.0000000 )


      isym = 42     inv. 120 deg rotation - cart. axis [-1,1,1]  

 cryst.   s(42) = (     0          0          1      )
                  (     1          0          0      )
                  (     0         -1          0      )

 cart.    s(42) = (  0.0000000  0.9999999  0.0000000 )
                  (  0.0000000  0.0000000 -1.0000000 )
                  (  1.0000001  0.0000000  0.0000000 )


      isym = 43     inv. 120 deg rotation - cart. axis [1,1,-1]  

 cryst.   s(43) = (     0          0          1      )
                  (    -1          0          0      )
                  (     0          1          0      )

 cart.    s(43) = (  0.0000000 -0.9999999  0.0000000 )
                  (  0.0000000  0.0000000  1.0000000 )
                  (  1.0000001  0.0000000  0.0000000 )


      isym = 44     inv. 120 deg rotation - cart. axis [1,-1,1]  

 cryst.   s(44) = (     0          0         -1      )
                  (     1          0          0      )
                  (     0          1          0      )

 cart.    s(44) = (  0.0000000  0.9999999  0.0000000 )
                  (  0.0000000  0.0000000  1.0000000 )
                  ( -1.0000001  0.0000000  0.0000000 )


      isym = 45     inv. 120 deg rotation - cart. axis [1,1,1]   

 cryst.   s(45) = (     0         -1          0      )
                  (     0          0         -1      )
                  (    -1          0          0      )

 cart.    s(45) = (  0.0000000  0.0000000 -0.9999999 )
                  ( -1.0000001  0.0000000  0.0000000 )
                  (  0.0000000 -1.0000000  0.0000000 )


      isym = 46     inv. 120 deg rotation - cart. axis [-1,1,-1] 

 cryst.   s(46) = (     0          1          0      )
                  (     0          0          1      )
                  (    -1          0          0      )

 cart.    s(46) = (  0.0000000  0.0000000 -0.9999999 )
                  (  1.0000001  0.0000000  0.0000000 )
                  (  0.0000000  1.0000000  0.0000000 )


      isym = 47     inv. 120 deg rotation - cart. axis [1,-1,-1] 

 cryst.   s(47) = (     0          1          0      )
                  (     0          0         -1      )
                  (     1          0          0      )

 cart.    s(47) = (  0.0000000  0.0000000  0.9999999 )
                  (  1.0000001  0.0000000  0.0000000 )
                  (  0.0000000 -1.0000000  0.0000000 )


      isym = 48     inv. 120 deg rotation - cart. axis [-1,-1,1] 

 cryst.   s(48) = (     0         -1          0      )
                  (     0          0          1      )
                  (     1          0          0      )

 cart.    s(48) = (  0.0000000  0.0000000  0.9999999 )
                  ( -1.0000001  0.0000000  0.0000000 )
                  (  0.0000000  1.0000000  0.0000000 )


   Cartesian axes

     site n.     atom                  positions (alat units)
         1           U   tau(   1) = (   0.0000000   0.0000000   0.0000000  )
         2           U   tau(   2) = (   0.5000000   0.5000000   0.0000000  )
         3           U   tau(   3) = (   0.5000000   0.0000000   0.5000000  )
         4           U   tau(   4) = (   0.0000000   0.5000000   0.5000000  )

   Crystallographic axes

     site n.     atom                  positions (cryst. coord.)
         1           U   tau(   1) = (  0.0000000  0.0000000  0.0000000  )
         2           U   tau(   2) = (  0.5000000  0.5000000  0.0000000  )
         3           U   tau(   3) = (  0.5000000  0.0000000  0.5000000  )
         4           U   tau(   4) = (  0.0000000  0.5000000  0.5000000  )

     number of k points=    20  Marzari-Vanderbilt smearing, width (Ry)=  0.0500
                       cart. coord. in units 2pi/alat
        k(    1) = (   0.0000000   0.0000000   0.0000000), wk =   0.0046296
        k(    2) = (   0.0000000   0.0000000   0.1666667), wk =   0.0277778
        k(    3) = (   0.0000000   0.0000000   0.3333333), wk =   0.0277778
        k(    4) = (   0.0000000   0.0000000  -0.5000000), wk =   0.0138889
        k(    5) = (   0.0000000   0.1666667   0.1666667), wk =   0.0555556
        k(    6) = (   0.0000000   0.1666667   0.3333333), wk =   0.1111111
        k(    7) = (   0.0000000   0.1666667  -0.5000000), wk =   0.0555556
        k(    8) = (   0.0000000   0.3333333   0.3333333), wk =   0.0555556
        k(    9) = (   0.0000000   0.3333333  -0.5000000), wk =   0.0555556
        k(   10) = (   0.0000000  -0.5000000  -0.5000000), wk =   0.0138889
        k(   11) = (   0.1666667   0.1666667   0.1666667), wk =   0.0370370
        k(   12) = (   0.1666667   0.1666667   0.3333333), wk =   0.1111111
        k(   13) = (   0.1666667   0.1666667  -0.5000000), wk =   0.0555556
        k(   14) = (   0.1666667   0.3333333   0.3333333), wk =   0.1111111
        k(   15) = (   0.1666667   0.3333333  -0.5000000), wk =   0.1111111
        k(   16) = (   0.1666667  -0.5000000  -0.5000000), wk =   0.0277778
        k(   17) = (   0.3333333   0.3333333   0.3333333), wk =   0.0370370
        k(   18) = (   0.3333333   0.3333333  -0.5000000), wk =   0.0555556
        k(   19) = (   0.3333333  -0.5000000  -0.5000000), wk =   0.0277778
        k(   20) = (  -0.5000000  -0.5000000  -0.5000000), wk =   0.0046296

                       cryst. coord.
        k(    1) = (   0.0000000   0.0000000   0.0000000), wk =   0.0046296
        k(    2) = (   0.0000000   0.0000000   0.1666667), wk =   0.0277778
        k(    3) = (   0.0000000   0.0000000   0.3333333), wk =   0.0277778
        k(    4) = (   0.0000000   0.0000000  -0.5000000), wk =   0.0138889
        k(    5) = (   0.0000000   0.1666667   0.1666667), wk =   0.0555556
        k(    6) = (   0.0000000   0.1666667   0.3333333), wk =   0.1111111
        k(    7) = (   0.0000000   0.1666667  -0.5000000), wk =   0.0555556
        k(    8) = (   0.0000000   0.3333333   0.3333333), wk =   0.0555556
        k(    9) = (   0.0000000   0.3333333  -0.5000000), wk =   0.0555556
        k(   10) = (   0.0000000  -0.5000000  -0.5000000), wk =   0.0138889
        k(   11) = (   0.1666667   0.1666667   0.1666667), wk =   0.0370370
        k(   12) = (   0.1666667   0.1666667   0.3333333), wk =   0.1111111
        k(   13) = (   0.1666667   0.1666667  -0.5000000), wk =   0.0555556
        k(   14) = (   0.1666667   0.3333333   0.3333333), wk =   0.1111111
        k(   15) = (   0.1666667   0.3333333  -0.5000000), wk =   0.1111111
        k(   16) = (   0.1666667  -0.5000000  -0.5000000), wk =   0.0277778
        k(   17) = (   0.3333333   0.3333333   0.3333333), wk =   0.0370370
        k(   18) = (   0.3333333   0.3333333  -0.5000000), wk =   0.0555556
        k(   19) = (   0.3333333  -0.5000000  -0.5000000), wk =   0.0277778
        k(   20) = (  -0.5000000  -0.5000000  -0.5000000), wk =   0.0046296

     Dense  grid:   160707 G-vectors     FFT dimensions: (  72,  72,  72)

     Smooth grid:    56667 G-vectors     FFT dimensions: (  48,  48,  48)

     Dynamical RAM for                 wfc:       0.11 MB

     Dynamical RAM for     wfc (w. buffer):       4.44 MB

     Dynamical RAM for           str. fact:       0.08 MB

     Dynamical RAM for           local pot:       0.00 MB

     Dynamical RAM for          nlocal pot:       0.43 MB

     Dynamical RAM for                qrad:       4.87 MB

     Dynamical RAM for          rho,v,vnew:       1.17 MB

     Dynamical RAM for               rhoin:       0.39 MB

     Dynamical RAM for            rho*nmix:       2.45 MB

     Dynamical RAM for           G-vectors:       0.30 MB

     Dynamical RAM for          h,s,v(r/c):       0.19 MB

     Dynamical RAM for          <psi|beta>:       0.06 MB

     Dynamical RAM for                 psi:       0.22 MB

     Dynamical RAM for                hpsi:       0.22 MB

     Dynamical RAM for                spsi:       0.22 MB

     Dynamical RAM for      wfcinit/wfcrot:       0.24 MB

     Dynamical RAM for           addusdens:      42.90 MB

     Dynamical RAM for          addusforce:      43.46 MB

     Dynamical RAM for         addusstress:      44.70 MB

     Estimated static dynamical RAM per process >      12.55 MB

     Estimated max dynamical RAM per process >      59.71 MB

     Estimated total dynamical RAM >       1.87 GB
     Generating pointlists ...
     new r_m :   0.2917 (alat units)  2.4436 (a.u.) for type    1

     Initial potential from superposition of free atoms

     starting charge   55.98204, renormalised to   56.00000
     Starting wfcs are random

     total cpu time spent up to now is      103.2 secs

     Self-consistent Calculation

     iteration #  1     ecut=    80.00 Ry     beta= 0.50
     Davidson diagonalization with overlap

---- Real-time Memory Report at c_bands before calling an iterative solver
            77 MiB given to the printing process from OS
             0 MiB allocation reported by mallinfo(arena+hblkhd)
         28664 MiB available memory on the node where the printing process lives
------------------
     ethr =  1.00E-02,  avg # of iterations = 11.0

     total cpu time spent up to now is      688.2 secs

     total energy              =    -516.15666549 Ry
     estimated scf accuracy    <       1.78067884 Ry

     total magnetization       =     2.50 Bohr mag/cell
     absolute magnetization    =     2.50 Bohr mag/cell

     iteration #  2     ecut=    80.00 Ry     beta= 0.50
     Davidson diagonalization with overlap

---- Real-time Memory Report at c_bands before calling an iterative solver
            91 MiB given to the printing process from OS
             0 MiB allocation reported by mallinfo(arena+hblkhd)
         30552 MiB available memory on the node where the printing process lives
------------------
     ethr =  3.18E-03,  avg # of iterations =  7.3

     total cpu time spent up to now is     1036.1 secs

     total energy              =    -517.12186273 Ry
     estimated scf accuracy    <       1.59824179 Ry

     total magnetization       =     2.78 Bohr mag/cell
     absolute magnetization    =     2.79 Bohr mag/cell

     iteration #  3     ecut=    80.00 Ry     beta= 0.50
     Davidson diagonalization with overlap

---- Real-time Memory Report at c_bands before calling an iterative solver
            91 MiB given to the printing process from OS
             0 MiB allocation reported by mallinfo(arena+hblkhd)
         30537 MiB available memory on the node where the printing process lives
------------------
     ethr =  2.85E-03,  avg # of iterations =  2.2

     total cpu time spent up to now is     1214.7 secs

     total energy              =    -517.30048340 Ry
     estimated scf accuracy    <       0.26998541 Ry

     total magnetization       =     2.06 Bohr mag/cell
     absolute magnetization    =     2.06 Bohr mag/cell

     iteration #  4     ecut=    80.00 Ry     beta= 0.50
     Davidson diagonalization with overlap

---- Real-time Memory Report at c_bands before calling an iterative solver
            92 MiB given to the printing process from OS
             0 MiB allocation reported by mallinfo(arena+hblkhd)
         30536 MiB available memory on the node where the printing process lives
------------------
     c_bands:  2 eigenvalues not converged
     c_bands:  1 eigenvalues not converged
     c_bands:  1 eigenvalues not converged
     c_bands:  3 eigenvalues not converged
     c_bands:  2 eigenvalues not converged
     c_bands:  4 eigenvalues not converged
     c_bands:  2 eigenvalues not converged
     c_bands:  1 eigenvalues not converged
     c_bands:  2 eigenvalues not converged
     c_bands:  2 eigenvalues not converged
     ethr =  4.82E-04,  avg # of iterations = 14.4

     total cpu time spent up to now is     1676.1 secs

     total energy              =    -517.41428269 Ry
     estimated scf accuracy    <       0.13641169 Ry

     total magnetization       =     2.26 Bohr mag/cell
     absolute magnetization    =     2.27 Bohr mag/cell

     iteration #  5     ecut=    80.00 Ry     beta= 0.50
     Davidson diagonalization with overlap

---- Real-time Memory Report at c_bands before calling an iterative solver
            92 MiB given to the printing process from OS
             0 MiB allocation reported by mallinfo(arena+hblkhd)
         30552 MiB available memory on the node where the printing process lives
------------------
     c_bands:  2 eigenvalues not converged
     c_bands:  3 eigenvalues not converged
     c_bands:  1 eigenvalues not converged
     c_bands:  2 eigenvalues not converged
     c_bands:  2 eigenvalues not converged
     c_bands:  1 eigenvalues not converged
     c_bands:  1 eigenvalues not converged
     c_bands:  2 eigenvalues not converged
     c_bands:  2 eigenvalues not converged
     c_bands:  1 eigenvalues not converged
     c_bands:  3 eigenvalues not converged
     c_bands:  1 eigenvalues not converged
     c_bands:  3 eigenvalues not converged
     ethr =  2.44E-04,  avg # of iterations = 14.0

     total cpu time spent up to now is     2134.0 secs

     total energy              =    -517.44981533 Ry
     estimated scf accuracy    <       0.00764859 Ry

     total magnetization       =     1.94 Bohr mag/cell
     absolute magnetization    =     1.95 Bohr mag/cell

     iteration #  6     ecut=    80.00 Ry     beta= 0.50
     Davidson diagonalization with overlap

---- Real-time Memory Report at c_bands before calling an iterative solver
            92 MiB given to the printing process from OS
             0 MiB allocation reported by mallinfo(arena+hblkhd)
         30543 MiB available memory on the node where the printing process lives
------------------
     c_bands:  1 eigenvalues not converged
     c_bands:  5 eigenvalues not converged
     c_bands:  1 eigenvalues not converged
     c_bands:  2 eigenvalues not converged
     c_bands:  1 eigenvalues not converged
     c_bands:  4 eigenvalues not converged
     c_bands:  2 eigenvalues not converged
     c_bands:  2 eigenvalues not converged
     c_bands:  4 eigenvalues not converged
     c_bands:  1 eigenvalues not converged
     c_bands:  4 eigenvalues not converged
     c_bands:  2 eigenvalues not converged
     c_bands:  4 eigenvalues not converged
     c_bands:  4 eigenvalues not converged
     c_bands:  4 eigenvalues not converged
     c_bands:  3 eigenvalues not converged
     c_bands:  4 eigenvalues not converged
     c_bands:  2 eigenvalues not converged
     c_bands:  3 eigenvalues not converged
     c_bands:  2 eigenvalues not converged
     c_bands:  2 eigenvalues not converged
     c_bands:  1 eigenvalues not converged
     c_bands:  1 eigenvalues not converged
     c_bands:  2 eigenvalues not converged
     c_bands:  4 eigenvalues not converged
     c_bands:  1 eigenvalues not converged
     c_bands:  4 eigenvalues not converged
     c_bands:  3 eigenvalues not converged
     c_bands:  1 eigenvalues not converged
     c_bands:  2 eigenvalues not converged
     c_bands:  3 eigenvalues not converged
     c_bands:  4 eigenvalues not converged
     c_bands:  2 eigenvalues not converged
     c_bands:  5 eigenvalues not converged
     c_bands:  3 eigenvalues not converged
     c_bands:  4 eigenvalues not converged
     c_bands:  1 eigenvalues not converged
     ethr =  1.37E-05,  avg # of iterations = 23.3

     total cpu time spent up to now is     2924.6 secs

     total energy              =    -517.47322657 Ry
     estimated scf accuracy    <       0.00312254 Ry

     total magnetization       =     1.70 Bohr mag/cell
     absolute magnetization    =     1.72 Bohr mag/cell

     iteration #  7     ecut=    80.00 Ry     beta= 0.50
     Davidson diagonalization with overlap

---- Real-time Memory Report at c_bands before calling an iterative solver
            93 MiB given to the printing process from OS
             0 MiB allocation reported by mallinfo(arena+hblkhd)
         30533 MiB available memory on the node where the printing process lives
------------------
     c_bands:  2 eigenvalues not converged
     c_bands:  1 eigenvalues not converged
     c_bands:  2 eigenvalues not converged
     c_bands:  2 eigenvalues not converged
     c_bands:  3 eigenvalues not converged
     c_bands:  4 eigenvalues not converged
     c_bands:  4 eigenvalues not converged
     c_bands:  2 eigenvalues not converged
     c_bands:  4 eigenvalues not converged
     c_bands:  2 eigenvalues not converged
     c_bands:  1 eigenvalues not converged
     c_bands:  1 eigenvalues not converged
     c_bands:  1 eigenvalues not converged
     c_bands:  2 eigenvalues not converged
     c_bands:  1 eigenvalues not converged
     c_bands:  4 eigenvalues not converged
     c_bands:  2 eigenvalues not converged
     c_bands:  2 eigenvalues not converged
     c_bands:  2 eigenvalues not converged
     c_bands:  3 eigenvalues not converged
     c_bands:  3 eigenvalues not converged
     c_bands:  3 eigenvalues not converged
     c_bands:  3 eigenvalues not converged
     ethr =  5.58E-06,  avg # of iterations = 16.6

     total cpu time spent up to now is     3415.2 secs

     total energy              =    -517.47589885 Ry
     estimated scf accuracy    <       0.00058372 Ry

     total magnetization       =     1.64 Bohr mag/cell
     absolute magnetization    =     1.66 Bohr mag/cell

     iteration #  8     ecut=    80.00 Ry     beta= 0.50
     Davidson diagonalization with overlap

---- Real-time Memory Report at c_bands before calling an iterative solver
            93 MiB given to the printing process from OS
             0 MiB allocation reported by mallinfo(arena+hblkhd)
         30529 MiB available memory on the node where the printing process lives
------------------
     c_bands:  1 eigenvalues not converged
     c_bands:  2 eigenvalues not converged
     c_bands:  1 eigenvalues not converged
     c_bands:  1 eigenvalues not converged
     c_bands:  1 eigenvalues not converged
     c_bands:  3 eigenvalues not converged
     c_bands:  4 eigenvalues not converged
     c_bands:  3 eigenvalues not converged
     c_bands:  2 eigenvalues not converged
     c_bands:  2 eigenvalues not converged
     c_bands:  2 eigenvalues not converged
     c_bands:  4 eigenvalues not converged
     c_bands:  1 eigenvalues not converged
     c_bands:  2 eigenvalues not converged
     c_bands:  1 eigenvalues not converged
     c_bands:  1 eigenvalues not converged
     c_bands:  1 eigenvalues not converged
     c_bands:  2 eigenvalues not converged
     c_bands:  1 eigenvalues not converged
     c_bands:  3 eigenvalues not converged
     c_bands:  4 eigenvalues not converged
     c_bands:  1 eigenvalues not converged
     c_bands:  1 eigenvalues not converged
     c_bands:  1 eigenvalues not converged
     c_bands:  2 eigenvalues not converged
     c_bands:  3 eigenvalues not converged
     c_bands:  3 eigenvalues not converged
     c_bands:  2 eigenvalues not converged
     ethr =  1.04E-06,  avg # of iterations = 17.7

     total cpu time spent up to now is     4004.5 secs

     total energy              =    -517.47681890 Ry
     estimated scf accuracy    <       0.00077064 Ry

     total magnetization       =     1.51 Bohr mag/cell
     absolute magnetization    =     1.54 Bohr mag/cell

     iteration #  9     ecut=    80.00 Ry     beta= 0.50
     Davidson diagonalization with overlap

---- Real-time Memory Report at c_bands before calling an iterative solver
            93 MiB given to the printing process from OS
             0 MiB allocation reported by mallinfo(arena+hblkhd)
         30536 MiB available memory on the node where the printing process lives
------------------
     c_bands:  1 eigenvalues not converged
     c_bands:  1 eigenvalues not converged
     c_bands:  1 eigenvalues not converged
     c_bands:  1 eigenvalues not converged
     c_bands:  3 eigenvalues not converged
     c_bands:  4 eigenvalues not converged
     c_bands:  3 eigenvalues not converged
     c_bands:  2 eigenvalues not converged
     c_bands:  3 eigenvalues not converged
     c_bands:  2 eigenvalues not converged
     c_bands:  1 eigenvalues not converged
     c_bands:  2 eigenvalues not converged
     c_bands:  3 eigenvalues not converged
     c_bands:  1 eigenvalues not converged
     c_bands:  1 eigenvalues not converged
     c_bands:  1 eigenvalues not converged
     c_bands:  1 eigenvalues not converged
     c_bands:  1 eigenvalues not converged
     ethr =  1.04E-06,  avg # of iterations = 15.5

     total cpu time spent up to now is     4495.3 secs

     total energy              =    -517.47733127 Ry
     estimated scf accuracy    <       0.00297031 Ry

     total magnetization       =     1.42 Bohr mag/cell
     absolute magnetization    =     1.45 Bohr mag/cell

     iteration # 10     ecut=    80.00 Ry     beta= 0.50
     Davidson diagonalization with overlap

---- Real-time Memory Report at c_bands before calling an iterative solver
            93 MiB given to the printing process from OS
             0 MiB allocation reported by mallinfo(arena+hblkhd)
         31831 MiB available memory on the node where the printing process lives
------------------
     c_bands:  1 eigenvalues not converged
     c_bands:  1 eigenvalues not converged
     c_bands:  1 eigenvalues not converged
     c_bands:  4 eigenvalues not converged
     c_bands:  1 eigenvalues not converged
     c_bands:  2 eigenvalues not converged
     c_bands:  1 eigenvalues not converged
     c_bands:  2 eigenvalues not converged
     c_bands:  2 eigenvalues not converged
     c_bands:  1 eigenvalues not converged
     c_bands:  2 eigenvalues not converged
     ethr =  1.04E-06,  avg # of iterations = 11.5

     total cpu time spent up to now is     4807.6 secs

     total energy              =    -517.47752311 Ry
     estimated scf accuracy    <       0.00022031 Ry

     total magnetization       =     1.37 Bohr mag/cell
     absolute magnetization    =     1.40 Bohr mag/cell

     iteration # 11     ecut=    80.00 Ry     beta= 0.50
     Davidson diagonalization with overlap

---- Real-time Memory Report at c_bands before calling an iterative solver
            94 MiB given to the printing process from OS
             0 MiB allocation reported by mallinfo(arena+hblkhd)
         31829 MiB available memory on the node where the printing process lives
------------------
     c_bands:  1 eigenvalues not converged
     c_bands:  3 eigenvalues not converged
     c_bands:  1 eigenvalues not converged
     c_bands:  2 eigenvalues not converged
     c_bands:  1 eigenvalues not converged
     c_bands:  1 eigenvalues not converged
     c_bands:  1 eigenvalues not converged
     c_bands:  2 eigenvalues not converged
     c_bands:  1 eigenvalues not converged
     c_bands:  4 eigenvalues not converged
     c_bands:  2 eigenvalues not converged
     c_bands:  1 eigenvalues not converged
     c_bands:  2 eigenvalues not converged
     c_bands:  1 eigenvalues not converged
     ethr =  3.93E-07,  avg # of iterations = 14.6

     total cpu time spent up to now is     5199.3 secs

     total energy              =    -517.47770250 Ry
     estimated scf accuracy    <       0.00067085 Ry

     total magnetization       =     1.28 Bohr mag/cell
     absolute magnetization    =     1.31 Bohr mag/cell

     iteration # 12     ecut=    80.00 Ry     beta= 0.50
     Davidson diagonalization with overlap

---- Real-time Memory Report at c_bands before calling an iterative solver
            94 MiB given to the printing process from OS
             0 MiB allocation reported by mallinfo(arena+hblkhd)
         31835 MiB available memory on the node where the printing process lives
------------------
     c_bands:  3 eigenvalues not converged
     c_bands:  2 eigenvalues not converged
     c_bands:  2 eigenvalues not converged
     c_bands:  1 eigenvalues not converged
     c_bands:  1 eigenvalues not converged
     c_bands:  2 eigenvalues not converged
     c_bands:  3 eigenvalues not converged
     c_bands:  3 eigenvalues not converged
     c_bands:  2 eigenvalues not converged
     ethr =  3.93E-07,  avg # of iterations =  5.3

     total cpu time spent up to now is     5394.3 secs

     total energy              =    -517.47764856 Ry
     estimated scf accuracy    <       0.00057722 Ry

     total magnetization       =     1.28 Bohr mag/cell
     absolute magnetization    =     1.31 Bohr mag/cell

     iteration # 13     ecut=    80.00 Ry     beta= 0.50
     Davidson diagonalization with overlap

---- Real-time Memory Report at c_bands before calling an iterative solver
            94 MiB given to the printing process from OS
             0 MiB allocation reported by mallinfo(arena+hblkhd)
         31836 MiB available memory on the node where the printing process lives
------------------
     c_bands:  2 eigenvalues not converged
     c_bands:  1 eigenvalues not converged
     c_bands:  2 eigenvalues not converged
     c_bands:  3 eigenvalues not converged
     c_bands:  4 eigenvalues not converged
     c_bands:  3 eigenvalues not converged
     c_bands:  2 eigenvalues not converged
     c_bands:  1 eigenvalues not converged
     c_bands:  1 eigenvalues not converged
     c_bands:  1 eigenvalues not converged
     c_bands:  1 eigenvalues not converged
     c_bands:  1 eigenvalues not converged
     c_bands:  2 eigenvalues not converged
     ethr =  3.93E-07,  avg # of iterations = 13.8

     total cpu time spent up to now is     5758.9 secs

     total energy              =    -517.47774589 Ry
     estimated scf accuracy    <       0.00027882 Ry

     total magnetization       =     1.26 Bohr mag/cell
     absolute magnetization    =     1.29 Bohr mag/cell

     iteration # 14     ecut=    80.00 Ry     beta= 0.50
     Davidson diagonalization with overlap

---- Real-time Memory Report at c_bands before calling an iterative solver
            94 MiB given to the printing process from OS
             0 MiB allocation reported by mallinfo(arena+hblkhd)
         31845 MiB available memory on the node where the printing process lives
------------------
     c_bands:  2 eigenvalues not converged
     c_bands:  1 eigenvalues not converged
     c_bands:  2 eigenvalues not converged
     c_bands:  3 eigenvalues not converged
     c_bands:  2 eigenvalues not converged
     c_bands:  1 eigenvalues not converged
     c_bands:  2 eigenvalues not converged
     c_bands:  1 eigenvalues not converged
     c_bands:  2 eigenvalues not converged
     c_bands:  2 eigenvalues not converged
     c_bands:  1 eigenvalues not converged
     ethr =  3.93E-07,  avg # of iterations =  6.5

     total cpu time spent up to now is     5967.2 secs

     total energy              =    -517.47777795 Ry
     estimated scf accuracy    <       0.00035672 Ry

     total magnetization       =     1.20 Bohr mag/cell
     absolute magnetization    =     1.23 Bohr mag/cell

     iteration # 15     ecut=    80.00 Ry     beta= 0.50
     Davidson diagonalization with overlap

---- Real-time Memory Report at c_bands before calling an iterative solver
            94 MiB given to the printing process from OS
             0 MiB allocation reported by mallinfo(arena+hblkhd)
         31850 MiB available memory on the node where the printing process lives
------------------
     c_bands:  1 eigenvalues not converged
     c_bands:  2 eigenvalues not converged
     c_bands:  1 eigenvalues not converged
     c_bands:  2 eigenvalues not converged
     c_bands:  1 eigenvalues not converged
     c_bands:  1 eigenvalues not converged
     c_bands:  1 eigenvalues not converged
     c_bands:  1 eigenvalues not converged
     c_bands:  2 eigenvalues not converged
     c_bands:  2 eigenvalues not converged
     ethr =  3.93E-07,  avg # of iterations =  7.9

     total cpu time spent up to now is     6181.0 secs

     total energy              =    -517.47780107 Ry
     estimated scf accuracy    <       0.00017833 Ry

     total magnetization       =     1.16 Bohr mag/cell
     absolute magnetization    =     1.19 Bohr mag/cell

     iteration # 16     ecut=    80.00 Ry     beta= 0.50
     Davidson diagonalization with overlap

---- Real-time Memory Report at c_bands before calling an iterative solver
            94 MiB given to the printing process from OS
             0 MiB allocation reported by mallinfo(arena+hblkhd)
         32817 MiB available memory on the node where the printing process lives
------------------
     c_bands:  2 eigenvalues not converged
     c_bands:  1 eigenvalues not converged
     c_bands:  1 eigenvalues not converged
     c_bands:  1 eigenvalues not converged
     c_bands:  3 eigenvalues not converged
     ethr =  3.18E-07,  avg # of iterations =  5.7

     total cpu time spent up to now is     6339.5 secs

     total energy              =    -517.47781062 Ry
     estimated scf accuracy    <       0.00019588 Ry

     total magnetization       =     1.13 Bohr mag/cell
     absolute magnetization    =     1.16 Bohr mag/cell

     iteration # 17     ecut=    80.00 Ry     beta= 0.50
     Davidson diagonalization with overlap

---- Real-time Memory Report at c_bands before calling an iterative solver
            94 MiB given to the printing process from OS
             0 MiB allocation reported by mallinfo(arena+hblkhd)
         32802 MiB available memory on the node where the printing process lives
------------------
     c_bands:  2 eigenvalues not converged
     c_bands:  1 eigenvalues not converged
     c_bands:  1 eigenvalues not converged
     c_bands:  1 eigenvalues not converged
     ethr =  3.18E-07,  avg # of iterations =  2.9

     total cpu time spent up to now is     6466.5 secs

     total energy              =    -517.47779737 Ry
     estimated scf accuracy    <       0.00020083 Ry

     total magnetization       =     1.13 Bohr mag/cell
     absolute magnetization    =     1.16 Bohr mag/cell

     iteration # 18     ecut=    80.00 Ry     beta= 0.50
     Davidson diagonalization with overlap

---- Real-time Memory Report at c_bands before calling an iterative solver
            94 MiB given to the printing process from OS
             0 MiB allocation reported by mallinfo(arena+hblkhd)
         32803 MiB available memory on the node where the printing process lives
------------------
     c_bands:  2 eigenvalues not converged
     c_bands:  1 eigenvalues not converged
     ethr =  3.18E-07,  avg # of iterations =  2.4

     total cpu time spent up to now is     6587.2 secs

     total energy              =    -517.47781162 Ry
     estimated scf accuracy    <       0.00029159 Ry

     total magnetization       =     1.17 Bohr mag/cell
     absolute magnetization    =     1.20 Bohr mag/cell

     iteration # 19     ecut=    80.00 Ry     beta= 0.50
     Davidson diagonalization with overlap

---- Real-time Memory Report at c_bands before calling an iterative solver
            95 MiB given to the printing process from OS
             0 MiB allocation reported by mallinfo(arena+hblkhd)
         32808 MiB available memory on the node where the printing process lives
------------------
     c_bands:  2 eigenvalues not converged
     c_bands:  1 eigenvalues not converged
     ethr =  3.18E-07,  avg # of iterations =  2.0

     total cpu time spent up to now is     6705.6 secs

     total energy              =    -517.47769585 Ry
     estimated scf accuracy    <       0.00022238 Ry

     total magnetization       =     1.13 Bohr mag/cell
     absolute magnetization    =     1.16 Bohr mag/cell

     iteration # 20     ecut=    80.00 Ry     beta= 0.50
     Davidson diagonalization with overlap

---- Real-time Memory Report at c_bands before calling an iterative solver
            95 MiB given to the printing process from OS
             0 MiB allocation reported by mallinfo(arena+hblkhd)
         32797 MiB available memory on the node where the printing process lives
------------------
     c_bands:  2 eigenvalues not converged
     c_bands:  1 eigenvalues not converged
     c_bands:  1 eigenvalues not converged
     c_bands:  2 eigenvalues not converged
     c_bands:  1 eigenvalues not converged
     c_bands:  4 eigenvalues not converged
     c_bands:  2 eigenvalues not converged
     c_bands:  1 eigenvalues not converged
     c_bands:  1 eigenvalues not converged
     c_bands:  3 eigenvalues not converged
     c_bands:  2 eigenvalues not converged
     ethr =  3.18E-07,  avg # of iterations = 12.6

     total cpu time spent up to now is     6985.4 secs

     total energy              =    -517.47786794 Ry
     estimated scf accuracy    <       0.00060439 Ry

     total magnetization       =     0.98 Bohr mag/cell
     absolute magnetization    =     1.01 Bohr mag/cell

     iteration # 21     ecut=    80.00 Ry     beta= 0.50
     Davidson diagonalization with overlap

---- Real-time Memory Report at c_bands before calling an iterative solver
            95 MiB given to the printing process from OS
             0 MiB allocation reported by mallinfo(arena+hblkhd)
         32801 MiB available memory on the node where the printing process lives
------------------
     c_bands:  2 eigenvalues not converged
     c_bands:  1 eigenvalues not converged
     c_bands:  3 eigenvalues not converged
     ethr =  3.18E-07,  avg # of iterations =  4.3

     total cpu time spent up to now is     7127.2 secs

     total energy              =    -517.47785972 Ry
     estimated scf accuracy    <       0.00028812 Ry

     total magnetization       =     1.00 Bohr mag/cell
     absolute magnetization    =     1.03 Bohr mag/cell

     iteration # 22     ecut=    80.00 Ry     beta= 0.50
     Davidson diagonalization with overlap

---- Real-time Memory Report at c_bands before calling an iterative solver
            95 MiB given to the printing process from OS
             0 MiB allocation reported by mallinfo(arena+hblkhd)
         32811 MiB available memory on the node where the printing process lives
------------------
     c_bands:  1 eigenvalues not converged
     c_bands:  1 eigenvalues not converged
     c_bands:  2 eigenvalues not converged
     c_bands:  1 eigenvalues not converged
     c_bands:  2 eigenvalues not converged
     c_bands:  1 eigenvalues not converged
     c_bands:  3 eigenvalues not converged
     ethr =  3.18E-07,  avg # of iterations =  8.7

     total cpu time spent up to now is     7333.5 secs

     total energy              =    -517.47790942 Ry
     estimated scf accuracy    <       0.00005725 Ry

     total magnetization       =     1.01 Bohr mag/cell
     absolute magnetization    =     1.04 Bohr mag/cell

     iteration # 23     ecut=    80.00 Ry     beta= 0.50
     Davidson diagonalization with overlap

---- Real-time Memory Report at c_bands before calling an iterative solver
            95 MiB given to the printing process from OS
             0 MiB allocation reported by mallinfo(arena+hblkhd)
         32803 MiB available memory on the node where the printing process lives
------------------
     c_bands:  2 eigenvalues not converged
     c_bands:  2 eigenvalues not converged
     c_bands:  2 eigenvalues not converged
     c_bands:  2 eigenvalues not converged
     c_bands:  1 eigenvalues not converged
     c_bands:  1 eigenvalues not converged
     c_bands:  1 eigenvalues not converged
     c_bands:  1 eigenvalues not converged
     c_bands:  3 eigenvalues not converged
     c_bands:  1 eigenvalues not converged
     ethr =  1.02E-07,  avg # of iterations =  8.2

     total cpu time spent up to now is     7526.7 secs

     total energy              =    -517.47793339 Ry
     estimated scf accuracy    <       0.00002636 Ry

     total magnetization       =     0.97 Bohr mag/cell
     absolute magnetization    =     1.01 Bohr mag/cell

     iteration # 24     ecut=    80.00 Ry     beta= 0.50
     Davidson diagonalization with overlap

---- Real-time Memory Report at c_bands before calling an iterative solver
            95 MiB given to the printing process from OS
             0 MiB allocation reported by mallinfo(arena+hblkhd)
         32804 MiB available memory on the node where the printing process lives
------------------
     c_bands:  1 eigenvalues not converged
     c_bands:  2 eigenvalues not converged
     c_bands:  1 eigenvalues not converged
     c_bands:  2 eigenvalues not converged
     c_bands:  2 eigenvalues not converged
     c_bands:  2 eigenvalues not converged
     c_bands:  3 eigenvalues not converged
     c_bands:  1 eigenvalues not converged
     c_bands:  2 eigenvalues not converged
     c_bands:  1 eigenvalues not converged
     c_bands:  3 eigenvalues not converged
     c_bands:  1 eigenvalues not converged
     c_bands:  3 eigenvalues not converged
     c_bands:  1 eigenvalues not converged
     c_bands:  4 eigenvalues not converged
     c_bands:  1 eigenvalues not converged
     ethr =  4.71E-08,  avg # of iterations = 14.1

     total cpu time spent up to now is     7805.7 secs

     total energy              =    -517.47794226 Ry
     estimated scf accuracy    <       0.00002250 Ry

     total magnetization       =     0.95 Bohr mag/cell
     absolute magnetization    =     0.99 Bohr mag/cell

     iteration # 25     ecut=    80.00 Ry     beta= 0.50
     Davidson diagonalization with overlap

---- Real-time Memory Report at c_bands before calling an iterative solver
            95 MiB given to the printing process from OS
             0 MiB allocation reported by mallinfo(arena+hblkhd)
         32813 MiB available memory on the node where the printing process lives
------------------
     c_bands:  1 eigenvalues not converged
     c_bands:  1 eigenvalues not converged
     c_bands:  2 eigenvalues not converged
     c_bands:  1 eigenvalues not converged
     c_bands:  1 eigenvalues not converged
     c_bands:  1 eigenvalues not converged
     c_bands:  1 eigenvalues not converged
     c_bands:  4 eigenvalues not converged
     ethr =  4.02E-08,  avg # of iterations =  8.2

     total cpu time spent up to now is     7993.4 secs

     total energy              =    -517.47796566 Ry
     estimated scf accuracy    <       0.00004147 Ry

     total magnetization       =     0.94 Bohr mag/cell
     absolute magnetization    =     0.97 Bohr mag/cell

     iteration # 26     ecut=    80.00 Ry     beta= 0.50
     Davidson diagonalization with overlap

---- Real-time Memory Report at c_bands before calling an iterative solver
            95 MiB given to the printing process from OS
             0 MiB allocation reported by mallinfo(arena+hblkhd)
         32817 MiB available memory on the node where the printing process lives
------------------
     c_bands:  1 eigenvalues not converged
     c_bands:  2 eigenvalues not converged
     c_bands:  2 eigenvalues not converged
     c_bands:  2 eigenvalues not converged
     c_bands:  3 eigenvalues not converged
     c_bands:  1 eigenvalues not converged
     c_bands:  1 eigenvalues not converged
     c_bands:  1 eigenvalues not converged
     c_bands:  3 eigenvalues not converged
     c_bands:  3 eigenvalues not converged
     ethr =  4.02E-08,  avg # of iterations = 12.2

     total cpu time spent up to now is     8250.5 secs

     total energy              =    -517.47795846 Ry
     estimated scf accuracy    <       0.00003523 Ry

     total magnetization       =     0.92 Bohr mag/cell
     absolute magnetization    =     0.97 Bohr mag/cell

     iteration # 27     ecut=    80.00 Ry     beta= 0.50
     Davidson diagonalization with overlap

---- Real-time Memory Report at c_bands before calling an iterative solver
            95 MiB given to the printing process from OS
             0 MiB allocation reported by mallinfo(arena+hblkhd)
         32794 MiB available memory on the node where the printing process lives
------------------
     c_bands:  1 eigenvalues not converged
     c_bands:  2 eigenvalues not converged
     c_bands:  1 eigenvalues not converged
     c_bands:  1 eigenvalues not converged
     c_bands:  1 eigenvalues not converged
     c_bands:  3 eigenvalues not converged
     c_bands:  1 eigenvalues not converged
     ethr =  4.02E-08,  avg # of iterations = 12.1

     total cpu time spent up to now is     8499.1 secs

     total energy              =    -517.47793002 Ry
     estimated scf accuracy    <       0.00006061 Ry

     total magnetization       =     0.94 Bohr mag/cell
     absolute magnetization    =     0.98 Bohr mag/cell

     iteration # 28     ecut=    80.00 Ry     beta= 0.50
     Davidson diagonalization with overlap

---- Real-time Memory Report at c_bands before calling an iterative solver
            95 MiB given to the printing process from OS
             0 MiB allocation reported by mallinfo(arena+hblkhd)
         32804 MiB available memory on the node where the printing process lives
------------------
     c_bands:  1 eigenvalues not converged
     c_bands:  2 eigenvalues not converged
     c_bands:  2 eigenvalues not converged
     c_bands:  1 eigenvalues not converged
     c_bands:  3 eigenvalues not converged
     c_bands:  2 eigenvalues not converged
     ethr =  4.02E-08,  avg # of iterations =  9.1

     total cpu time spent up to now is     8718.8 secs

     total energy              =    -517.47782480 Ry
     estimated scf accuracy    <       0.00016447 Ry

     total magnetization       =     0.97 Bohr mag/cell
     absolute magnetization    =     1.01 Bohr mag/cell

     iteration # 29     ecut=    80.00 Ry     beta= 0.50
     Davidson diagonalization with overlap

---- Real-time Memory Report at c_bands before calling an iterative solver
            95 MiB given to the printing process from OS
             0 MiB allocation reported by mallinfo(arena+hblkhd)
         32801 MiB available memory on the node where the printing process lives
------------------
     c_bands:  1 eigenvalues not converged
     c_bands:  2 eigenvalues not converged
     c_bands:  3 eigenvalues not converged
     c_bands:  2 eigenvalues not converged
     c_bands:  3 eigenvalues not converged
     c_bands:  2 eigenvalues not converged
     c_bands:  3 eigenvalues not converged
     c_bands:  2 eigenvalues not converged
     c_bands:  2 eigenvalues not converged
     c_bands:  3 eigenvalues not converged
     c_bands:  3 eigenvalues not converged
     c_bands:  1 eigenvalues not converged
     c_bands:  1 eigenvalues not converged
     c_bands:  5 eigenvalues not converged
     c_bands:  5 eigenvalues not converged
     c_bands:  2 eigenvalues not converged
     c_bands:  5 eigenvalues not converged
     c_bands:  4 eigenvalues not converged
     c_bands:  3 eigenvalues not converged
     c_bands:  1 eigenvalues not converged
     c_bands:  3 eigenvalues not converged
     c_bands:  5 eigenvalues not converged
     c_bands:  3 eigenvalues not converged
     c_bands:  3 eigenvalues not converged
     c_bands:  4 eigenvalues not converged
     c_bands:  4 eigenvalues not converged
     c_bands:  2 eigenvalues not converged
     ethr =  4.02E-08,  avg # of iterations = 20.2

     total cpu time spent up to now is     9190.2 secs

     total energy              =    -517.47787608 Ry
     estimated scf accuracy    <       0.00109241 Ry

     total magnetization       =     0.76 Bohr mag/cell
     absolute magnetization    =     1.01 Bohr mag/cell

     iteration # 30     ecut=    80.00 Ry     beta= 0.50
     Davidson diagonalization with overlap

---- Real-time Memory Report at c_bands before calling an iterative solver
            95 MiB given to the printing process from OS
             0 MiB allocation reported by mallinfo(arena+hblkhd)
         32817 MiB available memory on the node where the printing process lives
------------------
     c_bands:  1 eigenvalues not converged
     c_bands:  1 eigenvalues not converged
     c_bands:  1 eigenvalues not converged
     c_bands:  3 eigenvalues not converged
     c_bands:  1 eigenvalues not converged
     c_bands:  2 eigenvalues not converged
     c_bands:  1 eigenvalues not converged
     c_bands:  2 eigenvalues not converged
     c_bands:  1 eigenvalues not converged
     c_bands:  2 eigenvalues not converged
     c_bands:  2 eigenvalues not converged
     c_bands:  1 eigenvalues not converged
     c_bands:  4 eigenvalues not converged
     c_bands:  2 eigenvalues not converged
     c_bands:  4 eigenvalues not converged
     c_bands:  3 eigenvalues not converged
     c_bands:  4 eigenvalues not converged
     c_bands:  4 eigenvalues not converged
     c_bands:  2 eigenvalues not converged
     c_bands:  4 eigenvalues not converged
     c_bands:  2 eigenvalues not converged
     ethr =  4.02E-08,  avg # of iterations = 17.6

     total cpu time spent up to now is     9233.8 secs

     total energy              =    -517.47795208 Ry
     estimated scf accuracy    <       0.00041876 Ry

     total magnetization       =     0.89 Bohr mag/cell
     absolute magnetization    =     0.97 Bohr mag/cell

     iteration # 31     ecut=    80.00 Ry     beta= 0.50
     Davidson diagonalization with overlap

---- Real-time Memory Report at c_bands before calling an iterative solver
            95 MiB given to the printing process from OS
             0 MiB allocation reported by mallinfo(arena+hblkhd)
         34496 MiB available memory on the node where the printing process lives
------------------
     c_bands:  1 eigenvalues not converged
     c_bands:  2 eigenvalues not converged
     c_bands:  1 eigenvalues not converged
     c_bands:  1 eigenvalues not converged
     c_bands:  1 eigenvalues not converged
     c_bands:  1 eigenvalues not converged
     c_bands:  2 eigenvalues not converged
     c_bands:  1 eigenvalues not converged
     c_bands:  3 eigenvalues not converged
     c_bands:  2 eigenvalues not converged
     ethr =  4.02E-08,  avg # of iterations = 13.6

     total cpu time spent up to now is     9246.1 secs

     total energy              =    -517.47796819 Ry
     estimated scf accuracy    <       0.00066178 Ry

     total magnetization       =     0.94 Bohr mag/cell
     absolute magnetization    =     0.98 Bohr mag/cell

     iteration # 32     ecut=    80.00 Ry     beta= 0.50
     Davidson diagonalization with overlap

---- Real-time Memory Report at c_bands before calling an iterative solver
            95 MiB given to the printing process from OS
             0 MiB allocation reported by mallinfo(arena+hblkhd)
         34512 MiB available memory on the node where the printing process lives
------------------
     c_bands:  3 eigenvalues not converged
     c_bands:  2 eigenvalues not converged
     c_bands:  1 eigenvalues not converged
     c_bands:  4 eigenvalues not converged
     c_bands:  4 eigenvalues not converged
     c_bands:  2 eigenvalues not converged
     c_bands:  2 eigenvalues not converged
     c_bands:  2 eigenvalues not converged
     c_bands:  3 eigenvalues not converged
     c_bands:  3 eigenvalues not converged
     c_bands:  4 eigenvalues not converged
     c_bands:  3 eigenvalues not converged
     c_bands:  1 eigenvalues not converged
     c_bands:  3 eigenvalues not converged
     c_bands:  3 eigenvalues not converged
     c_bands:  2 eigenvalues not converged
     ethr =  4.02E-08,  avg # of iterations = 12.2

     total cpu time spent up to now is     9260.0 secs

     total energy              =    -517.47671700 Ry
     estimated scf accuracy    <       0.00004003 Ry

     total magnetization       =     0.93 Bohr mag/cell
     absolute magnetization    =     1.03 Bohr mag/cell

     iteration # 33     ecut=    80.00 Ry     beta= 0.50
     Davidson diagonalization with overlap

---- Real-time Memory Report at c_bands before calling an iterative solver
            95 MiB given to the printing process from OS
             0 MiB allocation reported by mallinfo(arena+hblkhd)
         34506 MiB available memory on the node where the printing process lives
------------------
     c_bands:  5 eigenvalues not converged
     c_bands:  2 eigenvalues not converged
     c_bands:  5 eigenvalues not converged
     c_bands:  5 eigenvalues not converged
     c_bands:  5 eigenvalues not converged
     c_bands:  5 eigenvalues not converged
     c_bands:  2 eigenvalues not converged
     c_bands:  4 eigenvalues not converged
     c_bands:  4 eigenvalues not converged
     c_bands:  2 eigenvalues not converged
     c_bands:  1 eigenvalues not converged
     c_bands:  2 eigenvalues not converged
     c_bands:  5 eigenvalues not converged
     c_bands:  1 eigenvalues not converged
     c_bands:  3 eigenvalues not converged
     c_bands:  5 eigenvalues not converged
     c_bands:  3 eigenvalues not converged
     c_bands:  3 eigenvalues not converged
     c_bands:  2 eigenvalues not converged
     c_bands:  4 eigenvalues not converged
     c_bands:  4 eigenvalues not converged
     c_bands:  5 eigenvalues not converged
     c_bands:  2 eigenvalues not converged
     c_bands:  4 eigenvalues not converged
     c_bands:  4 eigenvalues not converged
     c_bands:  2 eigenvalues not converged
     c_bands:  5 eigenvalues not converged
     c_bands:  1 eigenvalues not converged
     c_bands:  5 eigenvalues not converged
     c_bands:  3 eigenvalues not converged
     c_bands:  4 eigenvalues not converged
     c_bands:  5 eigenvalues not converged
     c_bands:  5 eigenvalues not converged
     ethr =  4.02E-08,  avg # of iterations = 26.7

     total cpu time spent up to now is     9290.3 secs

     total energy              =    -517.47845975 Ry
     estimated scf accuracy    <       0.00098675 Ry

     total magnetization       =     0.52 Bohr mag/cell
     absolute magnetization    =     1.35 Bohr mag/cell

     iteration # 34     ecut=    80.00 Ry     beta= 0.50
     Davidson diagonalization with overlap

---- Real-time Memory Report at c_bands before calling an iterative solver
            96 MiB given to the printing process from OS
             0 MiB allocation reported by mallinfo(arena+hblkhd)
         34510 MiB available memory on the node where the printing process lives
------------------
     c_bands:  2 eigenvalues not converged
     c_bands:  1 eigenvalues not converged
     c_bands:  2 eigenvalues not converged
     c_bands:  2 eigenvalues not converged
     c_bands:  2 eigenvalues not converged
     c_bands:  2 eigenvalues not converged
     c_bands:  1 eigenvalues not converged
     c_bands:  2 eigenvalues not converged
     c_bands:  3 eigenvalues not converged
     c_bands:  2 eigenvalues not converged
     c_bands:  2 eigenvalues not converged
     ethr =  4.02E-08,  avg # of iterations = 13.8

     total cpu time spent up to now is     9303.2 secs

     total energy              =    -517.47788342 Ry
     estimated scf accuracy    <       0.00077586 Ry

     total magnetization       =     0.57 Bohr mag/cell
     absolute magnetization    =     1.33 Bohr mag/cell

     iteration # 35     ecut=    80.00 Ry     beta= 0.50
     Davidson diagonalization with overlap

---- Real-time Memory Report at c_bands before calling an iterative solver
            96 MiB given to the printing process from OS
             0 MiB allocation reported by mallinfo(arena+hblkhd)
         34512 MiB available memory on the node where the printing process lives
------------------
     c_bands:  4 eigenvalues not converged
     c_bands:  1 eigenvalues not converged
     c_bands:  4 eigenvalues not converged
     c_bands:  5 eigenvalues not converged
     c_bands:  2 eigenvalues not converged
     c_bands:  4 eigenvalues not converged
     c_bands:  2 eigenvalues not converged
     c_bands:  2 eigenvalues not converged
     c_bands:  5 eigenvalues not converged
     c_bands:  2 eigenvalues not converged
     c_bands:  3 eigenvalues not converged
     c_bands:  4 eigenvalues not converged
     c_bands:  1 eigenvalues not converged
     c_bands:  1 eigenvalues not converged
     c_bands:  1 eigenvalues not converged
     c_bands:  2 eigenvalues not converged
     c_bands:  4 eigenvalues not converged
     c_bands:  2 eigenvalues not converged
     c_bands:  5 eigenvalues not converged
     c_bands:  4 eigenvalues not converged
     c_bands:  3 eigenvalues not converged
     c_bands:  3 eigenvalues not converged
     c_bands:  5 eigenvalues not converged
     c_bands:  4 eigenvalues not converged
     c_bands:  3 eigenvalues not converged
     c_bands:  4 eigenvalues not converged
     c_bands:  4 eigenvalues not converged
     c_bands:  3 eigenvalues not converged
     c_bands:  2 eigenvalues not converged
     ethr =  4.02E-08,  avg # of iterations = 20.6

     total cpu time spent up to now is     9326.1 secs

     total energy              =    -517.47817023 Ry
     estimated scf accuracy    <       0.00008066 Ry

     total magnetization       =     0.69 Bohr mag/cell
     absolute magnetization    =     1.13 Bohr mag/cell

     iteration # 36     ecut=    80.00 Ry     beta= 0.50
     Davidson diagonalization with overlap

---- Real-time Memory Report at c_bands before calling an iterative solver
            96 MiB given to the printing process from OS
             0 MiB allocation reported by mallinfo(arena+hblkhd)
         34577 MiB available memory on the node where the printing process lives
------------------
     c_bands:  2 eigenvalues not converged
     c_bands:  1 eigenvalues not converged
     c_bands:  1 eigenvalues not converged
     c_bands:  2 eigenvalues not converged
     c_bands:  1 eigenvalues not converged
     c_bands:  2 eigenvalues not converged
     c_bands:  2 eigenvalues not converged
     c_bands:  3 eigenvalues not converged
     c_bands:  2 eigenvalues not converged
     c_bands:  3 eigenvalues not converged
     c_bands:  1 eigenvalues not converged
     c_bands:  1 eigenvalues not converged
     ethr =  4.02E-08,  avg # of iterations = 13.4

     total cpu time spent up to now is     9338.6 secs

     total energy              =    -517.47801765 Ry
     estimated scf accuracy    <       0.00011104 Ry

     total magnetization       =     0.70 Bohr mag/cell
     absolute magnetization    =     1.09 Bohr mag/cell

     iteration # 37     ecut=    80.00 Ry     beta= 0.50
     Davidson diagonalization with overlap

---- Real-time Memory Report at c_bands before calling an iterative solver
            96 MiB given to the printing process from OS
             0 MiB allocation reported by mallinfo(arena+hblkhd)
         35475 MiB available memory on the node where the printing process lives
------------------
     c_bands:  3 eigenvalues not converged
     c_bands:  1 eigenvalues not converged
     c_bands:  3 eigenvalues not converged
     c_bands:  1 eigenvalues not converged
     c_bands:  2 eigenvalues not converged
     c_bands:  1 eigenvalues not converged
     c_bands:  1 eigenvalues not converged
     c_bands:  1 eigenvalues not converged
     c_bands:  3 eigenvalues not converged
     c_bands:  4 eigenvalues not converged
     c_bands:  1 eigenvalues not converged
     c_bands:  2 eigenvalues not converged
     c_bands:  1 eigenvalues not converged
     c_bands:  4 eigenvalues not converged
     c_bands:  1 eigenvalues not converged
     c_bands:  2 eigenvalues not converged
     c_bands:  4 eigenvalues not converged
     c_bands:  2 eigenvalues not converged
     c_bands:  4 eigenvalues not converged
     c_bands:  2 eigenvalues not converged
     c_bands:  1 eigenvalues not converged
     c_bands:  4 eigenvalues not converged
     c_bands:  3 eigenvalues not converged
     c_bands:  5 eigenvalues not converged
     ethr =  4.02E-08,  avg # of iterations = 17.6

     total cpu time spent up to now is     9354.4 secs

     total energy              =    -517.47805352 Ry
     estimated scf accuracy    <       0.00009532 Ry

     total magnetization       =     0.73 Bohr mag/cell
     absolute magnetization    =     1.00 Bohr mag/cell

     iteration # 38     ecut=    80.00 Ry     beta= 0.50
     Davidson diagonalization with overlap

---- Real-time Memory Report at c_bands before calling an iterative solver
            96 MiB given to the printing process from OS
             0 MiB allocation reported by mallinfo(arena+hblkhd)
         35534 MiB available memory on the node where the printing process lives
------------------
     c_bands:  1 eigenvalues not converged
     c_bands:  1 eigenvalues not converged
     c_bands:  2 eigenvalues not converged
     c_bands:  1 eigenvalues not converged
     c_bands:  1 eigenvalues not converged
     c_bands:  1 eigenvalues not converged
     c_bands:  1 eigenvalues not converged
     c_bands:  1 eigenvalues not converged
     c_bands:  2 eigenvalues not converged
     c_bands:  4 eigenvalues not converged
     c_bands:  3 eigenvalues not converged
     c_bands:  1 eigenvalues not converged
     c_bands:  1 eigenvalues not converged
     c_bands:  1 eigenvalues not converged
     c_bands:  1 eigenvalues not converged
     ethr =  4.02E-08,  avg # of iterations = 13.4

     total cpu time spent up to now is     9365.0 secs

     total energy              =    -517.47810587 Ry
     estimated scf accuracy    <       0.00007304 Ry

     total magnetization       =     0.74 Bohr mag/cell
     absolute magnetization    =     0.97 Bohr mag/cell

     iteration # 39     ecut=    80.00 Ry     beta= 0.50
     Davidson diagonalization with overlap

---- Real-time Memory Report at c_bands before calling an iterative solver
            96 MiB given to the printing process from OS
             0 MiB allocation reported by mallinfo(arena+hblkhd)
         35551 MiB available memory on the node where the printing process lives
------------------
     c_bands:  1 eigenvalues not converged
     c_bands:  1 eigenvalues not converged
     c_bands:  1 eigenvalues not converged
     c_bands:  2 eigenvalues not converged
     c_bands:  2 eigenvalues not converged
     c_bands:  1 eigenvalues not converged
     ethr =  4.02E-08,  avg # of iterations =  8.6

     total cpu time spent up to now is     9373.8 secs

     total energy              =    -517.47802133 Ry
     estimated scf accuracy    <       0.00018456 Ry

     total magnetization       =     0.72 Bohr mag/cell
     absolute magnetization    =     0.99 Bohr mag/cell

     iteration # 40     ecut=    80.00 Ry     beta= 0.50
     Davidson diagonalization with overlap

---- Real-time Memory Report at c_bands before calling an iterative solver
            96 MiB given to the printing process from OS
             0 MiB allocation reported by mallinfo(arena+hblkhd)
         35542 MiB available memory on the node where the printing process lives
------------------
     c_bands:  1 eigenvalues not converged
     c_bands:  1 eigenvalues not converged
     c_bands:  1 eigenvalues not converged
     c_bands:  1 eigenvalues not converged
     c_bands:  1 eigenvalues not converged
     c_bands:  1 eigenvalues not converged
     c_bands:  2 eigenvalues not converged
     c_bands:  3 eigenvalues not converged
     c_bands:  2 eigenvalues not converged
     c_bands:  4 eigenvalues not converged
     c_bands:  1 eigenvalues not converged
     c_bands:  2 eigenvalues not converged
     c_bands:  2 eigenvalues not converged
     ethr =  4.02E-08,  avg # of iterations = 15.8

     total cpu time spent up to now is     9387.5 secs

     total energy              =    -517.47799424 Ry
     estimated scf accuracy    <       0.00029189 Ry

[...]
    23.0313  23.3094  23.4468  23.5123  23.5883  23.5914  23.7285  23.7346

     occupation numbers 
     1.0000   1.0000   1.0000   1.0000   1.0000   1.0000   1.0000   1.0000
     1.0000   1.0000   1.0000   1.0000   1.0000   1.0000   1.0000   1.0000
     1.0000   1.0000   1.0000   1.0000   1.0000   1.0000   1.0001   1.0060
     0.7509   0.4485   0.3139   0.2584   0.2018   0.1997   0.1206   0.1177

          k = 0.0000 0.1667 0.3333 (  7106 PWs)   bands (ev):

   -20.5151 -20.1316 -19.9731 -19.9419   2.6536   2.7688   2.8964   3.5274
     4.0371   4.5996   4.8031   4.9067   4.9436   5.1973   5.8422   6.2241
    20.0585  20.2472  20.5599  20.6034  20.8849  21.3153  21.4697  22.2094
    22.5733  22.9757  23.3441  23.4189  23.4470  23.4952  23.5115  23.6689

     occupation numbers 
     1.0000   1.0000   1.0000   1.0000   1.0000   1.0000   1.0000   1.0000
     1.0000   1.0000   1.0000   1.0000   1.0000   1.0000   1.0000   1.0000
     1.0000   1.0000   1.0000   1.0000   1.0001   1.0015   1.0039   1.0700
     1.0624   0.8072   0.4125   0.3395   0.3138   0.2722   0.2590   0.1515

          k = 0.0000 0.1667-0.5000 (  7088 PWs)   bands (ev):

   -20.3307 -20.3217 -19.9616 -19.9520   3.0359   3.0401   3.3598   3.3666
     3.6601   3.6645   4.8622   4.8666   5.3515   5.3585   5.7246   5.7293
    20.9374  20.9396  21.1120  21.1127  21.1509  21.1528  22.6020  22.6080
    22.6821  22.6866  22.7983  22.7983  23.1319  23.1382  23.8558  23.8560

     occupation numbers 
     1.0000   1.0000   1.0000   1.0000   1.0000   1.0000   1.0000   1.0000
     1.0000   1.0000   1.0000   1.0000   1.0000   1.0000   1.0000   1.0000
     1.0001   1.0001   1.0004   1.0004   1.0005   1.0005   1.0544   1.0525
     1.0238   1.0218   0.9571   0.9571   0.6424   0.6354   0.0706   0.0705

          k = 0.0000 0.3333 0.3333 (  7103 PWs)   bands (ev):

   -20.4035 -20.0949 -20.0858 -19.9808   2.8056   2.8111   3.0763   3.1524
     3.8483   4.3681   4.3750   5.3358   5.3575   5.3634   5.4055   6.2748
    20.1502  21.1520  21.1541  21.4702  21.6174  21.6178  21.6284  22.3881
    22.5315  22.5331  22.8942  23.4168  23.4416  23.6024  23.6274  23.6612

     occupation numbers 
     1.0000   1.0000   1.0000   1.0000   1.0000   1.0000   1.0000   1.0000
     1.0000   1.0000   1.0000   1.0000   1.0000   1.0000   1.0000   1.0000
     1.0000   1.0005   1.0005   1.0039   1.0086   1.0086   1.0091   1.0833
     1.0716   1.0712   0.8826   0.3414   0.3187   0.1923   0.1762   0.1559

          k = 0.0000 0.3333-0.5000 (  7110 PWs)   bands (ev):

   -20.2529 -20.2440 -20.0397 -20.0299   2.8352   2.8370   3.2081   3.2098
     3.7220   3.7288   4.8601   4.8670   5.4563   5.4582   5.9376   5.9396
    20.9038  20.9041  21.7385  21.7397  21.8111  21.8119  22.0847  22.0887
    22.6994  22.7035  22.7570  22.7591  23.6088  23.6152  23.6427  23.6470

     occupation numbers 
     1.0000   1.0000   1.0000   1.0000   1.0000   1.0000   1.0000   1.0000
     1.0000   1.0000   1.0000   1.0000   1.0000   1.0000   1.0000   1.0000
     1.0001   1.0001   1.0154   1.0155   1.0211   1.0212   1.0533   1.0538
     1.0156   1.0136   0.9839   0.9826   0.1881   0.1839   0.1668   0.1642

          k = 0.0000-0.5000-0.5000 (  7120 PWs)   bands (ev):

   -20.1464 -20.1463 -20.1463 -20.1277   2.8874   2.8876   2.8941   2.8941
     4.2597   4.2597   4.2597   4.2735   5.8642   5.8644   5.8715   5.8715
    21.1591  21.1591  21.1600  21.1600  22.5285  22.5285  22.5311  22.5322
    22.6607  22.6629  22.6683  22.6683  23.4032  23.4049  23.4049  23.4242

     occupation numbers 
     1.0000   1.0000   1.0000   1.0000   1.0000   1.0000   1.0000   1.0000
     1.0000   1.0000   1.0000   1.0000   1.0000   1.0000   1.0000   1.0000
     1.0005   1.0005   1.0005   1.0005   1.0721   1.0721   1.0716   1.0714
     1.0332   1.0323   1.0300   1.0300   0.3542   0.3526   0.3526   0.3345

          k = 0.1667 0.1667 0.1667 (  7103 PWs)   bands (ev):

   -20.6042 -19.9887 -19.9887 -19.9746   2.4594   2.4626   2.4626   4.2927
     4.2927   4.3012   4.9809   4.9863   4.9863   5.0035   6.3504   6.3504
    19.5805  19.5818  19.5818  19.8503  21.0047  21.0053  21.0053  21.7365
    23.0088  23.3838  23.3838  23.5720  23.5720  23.5746  23.6290  23.6347

     occupation numbers 
     1.0000   1.0000   1.0000   1.0000   1.0000   1.0000   1.0000   1.0000
     1.0000   1.0000   1.0000   1.0000   1.0000   1.0000   1.0000   1.0000
     1.0000   1.0000   1.0000   1.0000   1.0002   1.0002   1.0002   1.0153
     0.7741   0.3730   0.3730   0.2132   0.2132   0.2114   0.1752   0.1717

          k = 0.1667 0.1667 0.3333 (  7117 PWs)   bands (ev):

   -20.4778 -20.1201 -19.9869 -19.9771   2.5916   2.5946   2.7715   3.9434
     3.9495   4.1374   4.8686   5.0594   5.0633   5.2487   6.0345   6.1518
    20.1708  20.2505  20.2513  20.4488  21.2919  22.0411  22.2412  22.2415
    22.5863  22.9694  22.9740  23.1480  23.4985  23.5018  23.5815  23.6066

     occupation numbers 
     1.0000   1.0000   1.0000   1.0000   1.0000   1.0000   1.0000   1.0000
     1.0000   1.0000   1.0000   1.0000   1.0000   1.0000   1.0000   1.0000
     1.0000   1.0000   1.0000   1.0000   1.0013   1.0473   1.0737   1.0737
     1.0589   0.8134   0.8089   0.6246   0.2695   0.2669   0.2065   0.1895

          k = 0.1667 0.1667-0.5000 (  7102 PWs)   bands (ev):

   -20.3057 -20.2967 -19.9859 -19.9763   2.6686   2.6723   3.3425   3.3447
     3.7948   3.8017   5.0588   5.0627   5.5730   5.5754   5.6253   5.6324
    20.6818  20.6841  21.0952  21.0960  21.8265  21.8273  22.1345  22.1367
    22.5363  22.5379  22.9963  22.9974  23.3041  23.3126  23.7771  23.7774

     occupation numbers 
     1.0000   1.0000   1.0000   1.0000   1.0000   1.0000   1.0000   1.0000
     1.0000   1.0000   1.0000   1.0000   1.0000   1.0000   1.0000   1.0000
     1.0000   1.0000   1.0003   1.0003   1.0225   1.0225   1.0602   1.0605
     1.0706   1.0703   0.7868   0.7857   0.4540   0.4451   0.0990   0.0989

          k = 0.1667 0.3333 0.3333 (  7094 PWs)   bands (ev):

   -20.3751 -20.0935 -20.0847 -20.0087   2.4578   2.5386   2.5425   3.3959
     4.0217   4.6444   4.6504   5.3957   5.4084   5.4135   5.7467   6.2090
    20.3172  20.4274  20.7284  20.7292  22.0448  22.0448  22.2598  22.6270
    22.6279  22.7134  22.9251  23.1086  23.4528  23.4732  23.6006  23.6061

     occupation numbers 
     1.0000   1.0000   1.0000   1.0000   1.0000   1.0000   1.0000   1.0000
     1.0000   1.0000   1.0000   1.0000   1.0000   1.0000   1.0000   1.0000
     1.0000   1.0000   1.0000   1.0000   1.0478   1.0478   1.0756   1.0462
     1.0458   1.0085   0.8551   0.6680   0.3086   0.2908   0.1935   0.1898

          k = 0.1667 0.3333-0.5000 (  7108 PWs)   bands (ev):

   -20.2375 -20.2287 -20.0528 -20.0430   2.4094   2.4120   2.8165   2.8165
     4.3081   4.3145   5.2611   5.2659   5.5084   5.5106   5.8973   5.8996
    20.8441  20.8460  21.0339  21.0342  21.8541  21.8548  21.8648  21.8655
    22.8192  22.8236  23.1377  23.1389  23.5092  23.5193  23.6071  23.6072

     occupation numbers 
     1.0000   1.0000   1.0000   1.0000   1.0000   1.0000   1.0000   1.0000
     1.0000   1.0000   1.0000   1.0000   1.0000   1.0000   1.0000   1.0000
     1.0000   1.0000   1.0002   1.0002   1.0251   1.0251   1.0261   1.0262
     0.9423   0.9391   0.6360   0.6347   0.2609   0.2528   0.1892   0.1891

          k = 0.1667-0.5000-0.5000 (  7112 PWs)   bands (ev):

   -20.1449 -20.1449 -20.1449 -20.1262   2.4591   2.4619   2.4644   2.4644
     4.8022   4.8036   4.8036   4.8133   5.8670   5.8672   5.8743   5.8743
    21.0474  21.0474  21.0492  21.0495  21.6696  21.6714  21.6717  21.6717
    23.2342  23.2353  23.2404  23.2404  23.4219  23.4247  23.4247  23.4406

     occupation numbers 
     1.0000   1.0000   1.0000   1.0000   1.0000   1.0000   1.0000   1.0000
     1.0000   1.0000   1.0000   1.0000   1.0000   1.0000   1.0000   1.0000
     1.0002   1.0002   1.0002   1.0002   1.0112   1.0113   1.0113   1.0113
     0.5293   0.5281   0.5226   0.5226   0.3367   0.3341   0.3341   0.3195

          k = 0.3333 0.3333 0.3333 (  7115 PWs)   bands (ev):

   -20.2977 -20.0909 -20.0909 -20.0766   2.1566   2.1608   2.1608   2.7113
     4.9900   4.9900   4.9997   5.5585   5.5640   5.5640   6.0315   6.0315
    19.8915  20.5906  20.5911  20.5911  21.8215  21.8220  21.8220  22.2848
    23.1153  23.1199  23.1199  23.5140  23.5140  23.5230  23.5236  23.5236

     occupation numbers 
     1.0000   1.0000   1.0000   1.0000   1.0000   1.0000   1.0000   1.0000
     1.0000   1.0000   1.0000   1.0000   1.0000   1.0000   1.0000   1.0000
     1.0000   1.0000   1.0000   1.0000   1.0220   1.0221   1.0221   1.0780
     0.6606   0.6557   0.6557   0.2570   0.2570   0.2499   0.2494   0.2494

          k = 0.3333 0.3333-0.5000 (  7116 PWs)   bands (ev):

   -20.1963 -20.1878 -20.0896 -20.0795   2.0057   2.0082   2.2538   2.2551
     5.0941   5.1011   5.6661   5.6688   5.7586   5.7604   5.7904   5.7977
    20.1504  20.1520  20.7625  20.7627  21.4495  21.4504  21.9265  21.9265
    23.2976  23.3036  23.3179  23.3206  23.4817  23.4920  23.5450  23.5470

     occupation numbers 
     1.0000   1.0000   1.0000   1.0000   1.0000   1.0000   1.0000   1.0000
     1.0000   1.0000   1.0000   1.0000   1.0000   1.0000   1.0000   1.0000
     1.0000   1.0000   1.0000   1.0000   1.0034   1.0034   1.0328   1.0328
     0.4609   0.4546   0.4395   0.4368   0.2836   0.2749   0.2329   0.2315

          k = 0.3333-0.5000-0.5000 (  7092 PWs)   bands (ev):

   -20.1419 -20.1418 -20.1418 -20.1232   1.9458   1.9499   1.9504   1.9504
     5.5561   5.5581   5.5581   5.5659   5.8726   5.8728   5.8800   5.8800
    20.1240  20.1240  20.1244  20.1264  21.8002  21.8016  21.8018  21.8018
    23.4316  23.4338  23.4402  23.4402  23.4510  23.4569  23.4569  23.4664

     occupation numbers 
     1.0000   1.0000   1.0000   1.0000   1.0000   1.0000   1.0000   1.0000
     1.0000   1.0000   1.0000   1.0000   1.0000   1.0000   1.0000   1.0000
     1.0000   1.0000   1.0000   1.0000   1.0202   1.0203   1.0203   1.0203
     0.3277   0.3257   0.3199   0.3199   0.3102   0.3050   0.3050   0.2967

          k =-0.5000-0.5000-0.5000 (  7088 PWs)   bands (ev):

   -20.1404 -20.1404 -20.1404 -20.1217   1.7535   1.7580   1.7580   1.7580
     5.8755   5.8755   5.8755   5.8756   5.8756   5.8852   5.8852   5.8852
    19.6843  19.6843  19.6843  19.6868  21.9921  21.9938  21.9938  21.9938
    23.4628  23.4628  23.4648  23.4648  23.4648  23.4770  23.4770  23.4770

     occupation numbers 
     1.0000   1.0000   1.0000   1.0000   1.0000   1.0000   1.0000   1.0000
     1.0000   1.0000   1.0000   1.0000   1.0000   1.0000   1.0000   1.0000
     1.0000   1.0000   1.0000   1.0000   1.0408   1.0410   1.0410   1.0410
     0.2998   0.2998   0.2980   0.2980   0.2980   0.2875   0.2875   0.2875

     the Fermi energy is    23.3559 ev

!    total energy              =    -517.47789635 Ry
     estimated scf accuracy    <          7.1E-09 Ry
     smearing contrib. (-TS)   =      -0.04580967 Ry
     internal energy E=F+TS    =    -517.43208668 Ry

     The total energy is F=E-TS. E is the sum of the following terms:
     one-electron contribution =      40.83784390 Ry
     hartree contribution      =      37.35893509 Ry
     xc contribution           =    -166.57373682 Ry
     ewald contribution        =    -429.05512886 Ry

     total magnetization       =     0.00 Bohr mag/cell
     absolute magnetization    =     0.09 Bohr mag/cell

     convergence has been achieved in  80 iterations

     Forces acting on atoms (cartesian axes, Ry/au):

     atom    1 type  1   force =     0.00000000    0.00000000    0.00000000
     atom    2 type  1   force =     0.00000000    0.00000000    0.00000000
     atom    3 type  1   force =     0.00000000    0.00000000    0.00000000
     atom    4 type  1   force =     0.00000000    0.00000000    0.00000000
     The non-local contrib.  to forces
     atom    1 type  1   force =     0.00000000    0.00000000    0.00000000
     atom    2 type  1   force =     0.00000000    0.00000000    0.00000000
     atom    3 type  1   force =     0.00000000    0.00000000    0.00000000
     atom    4 type  1   force =     0.00000000    0.00000000    0.00000000
     The ionic contribution  to forces
     atom    1 type  1   force =    -0.00000000   -0.00000000   -0.00000000
     atom    2 type  1   force =     0.00000000    0.00000000   -0.00000000
     atom    3 type  1   force =     0.00000000   -0.00000000    0.00000000
     atom    4 type  1   force =    -0.00000000    0.00000000    0.00000000
     The local contribution  to forces
     atom    1 type  1   force =     0.00000000    0.00000000    0.00000000
     atom    2 type  1   force =     0.00000000    0.00000000    0.00000000
     atom    3 type  1   force =     0.00000000    0.00000000    0.00000000
     atom    4 type  1   force =     0.00000000    0.00000000    0.00000000
     The core correction contribution to forces
     atom    1 type  1   force =     0.00000000    0.00000000    0.00000000
     atom    2 type  1   force =    -0.00000000   -0.00000000    0.00000000
     atom    3 type  1   force =    -0.00000000    0.00000000   -0.00000000
     atom    4 type  1   force =     0.00000000    0.00000000    0.00000000
     The Hubbard contrib.    to forces
     atom    1 type  1   force =     0.00000000    0.00000000    0.00000000
     atom    2 type  1   force =     0.00000000    0.00000000    0.00000000
     atom    3 type  1   force =     0.00000000    0.00000000    0.00000000
     atom    4 type  1   force =     0.00000000    0.00000000    0.00000000
     The SCF correction term to forces
     atom    1 type  1   force =    -0.00000000    0.00000000   -0.00000000
     atom    2 type  1   force =    -0.00000000   -0.00000000    0.00000000
     atom    3 type  1   force =    -0.00000000    0.00000000    0.00000000
     atom    4 type  1   force =     0.00000000    0.00000000    0.00000000

     Total force =     0.000000     Total SCF correction =     0.000000


     Computing stress (Cartesian axis) and pressure

          total   stress  (Ry/bohr**3)                   (kbar)     P=      -32.38
  -0.00022014   0.00000000   0.00000000          -32.38        0.00        0.00
   0.00000000  -0.00022014   0.00000000            0.00      -32.38        0.00
   0.00000000   0.00000000  -0.00022014            0.00        0.00      -32.38

     kinetic stress (kbar)  31236.25      0.00      0.00
                                0.00  31236.25      0.00
                                0.00      0.00  31236.25

     local   stress (kbar)   8431.07     -0.00     -0.00
                               -0.00   8431.07     -0.00
                               -0.00     -0.00   8431.07

     nonloc. stress (kbar)   -512.15      0.00      0.00
                                0.00   -512.15      0.00
                                0.00      0.00   -512.15

     hartree stress (kbar)   3115.40     -0.00      0.00
                               -0.00   3115.40      0.00
                                0.00      0.00   3115.40

     exc-cor stress (kbar)  21053.05     -0.00      0.00
                               -0.00  21053.05      0.00
                                0.00      0.00  21053.05

     corecor stress (kbar) -27576.71      0.00     -0.00
                                0.00 -27576.71     -0.00
                               -0.00     -0.00 -27576.71

     ewald   stress (kbar) -35779.30      0.00      0.00
                                0.00 -35779.30     -0.00
                                0.00     -0.00 -35779.30

     hubbard stress (kbar)      0.00      0.00      0.00
                                0.00      0.00      0.00
                                0.00      0.00      0.00

     DFT-D   stress (kbar)      0.00      0.00      0.00
                                0.00      0.00      0.00
                                0.00      0.00      0.00

     XDM     stress (kbar)      0.00      0.00      0.00
                                0.00      0.00      0.00
                                0.00      0.00      0.00

     dft-nl  stress (kbar)      0.00      0.00      0.00
                                0.00      0.00      0.00
                                0.00      0.00      0.00

     TS-vdW  stress (kbar)      0.00      0.00      0.00
                                0.00      0.00      0.00
                                0.00      0.00      0.00


                                0.00      0.00      0.00
                                0.00      0.00      0.00


                                0.00      0.00      0.00


     Writing output data file ./Uranium.save/

     init_run     :     34.75s CPU     72.04s WALL (       1 calls)
     electrons    :   6390.49s CPU  10081.63s WALL (       1 calls)
     forces       :      1.98s CPU      2.18s WALL (       1 calls)
     stress       :      3.84s CPU      4.35s WALL (       1 calls)

     Called by init_run:
     wfcinit      :     30.43s CPU     63.11s WALL (       1 calls)
     wfcinit:wfcr :     30.34s CPU     63.01s WALL (      40 calls)
     potinit      :      0.77s CPU      1.62s WALL (       1 calls)
     hinit0       :      2.24s CPU      4.44s WALL (       1 calls)

     Called by electrons:
     c_bands      :   5861.45s CPU   9285.46s WALL (      80 calls)
     sum_band     :    429.02s CPU    648.47s WALL (      80 calls)
     v_of_rho     :     16.93s CPU     24.89s WALL (      81 calls)
     v_h          :      3.35s CPU      5.32s WALL (      81 calls)
     v_xc         :     13.74s CPU     19.74s WALL (      83 calls)
     newd         :     26.30s CPU     39.30s WALL (      81 calls)
     mix_rho      :     49.70s CPU     72.36s WALL (      80 calls)

     Called by c_bands:
     init_us_2    :      3.97s CPU      4.74s WALL (    6520 calls)
     cegterg      :   5771.79s CPU   9144.02s WALL (    3446 calls)

     Called by sum_band:
     sum_band:wei :      0.40s CPU      0.48s WALL (      80 calls)
     sum_band:loo :    394.09s CPU    597.85s WALL (      80 calls)
     sum_band:buf :      0.21s CPU      0.29s WALL (    3200 calls)
     sum_band:ini :      1.69s CPU      2.09s WALL (    3200 calls)
     sum_band:cal :    102.19s CPU    157.61s WALL (    3200 calls)
     sum_band:bec :      2.12s CPU      2.41s WALL (    3200 calls)
     addusdens    :     28.73s CPU     41.61s WALL (      80 calls)
     addusd:skk   :      0.02s CPU      0.03s WALL (      80 calls)
     addusd:dgemm :      7.88s CPU     14.00s WALL (     160 calls)
     addusd:qvan2 :     19.27s CPU     24.54s WALL (     160 calls)

     Called by *egterg:
     cdiaghg      :    230.58s CPU    259.67s WALL (   55252 calls)
     cegterg:over :   1433.33s CPU   2373.09s WALL (   51806 calls)
     cegterg:upda :     24.89s CPU     27.73s WALL (   51806 calls)
     cegterg:last :     81.19s CPU    104.17s WALL (   16809 calls)
     h_psi        :   3222.63s CPU   5125.94s WALL (   55292 calls)
     s_psi        :     79.64s CPU     97.01s WALL (   55292 calls)
     g_psi        :      1.34s CPU      1.47s WALL (   51806 calls)

     Called by h_psi:
     h_psi:calbec :    898.45s CPU   1466.65s WALL (   55292 calls)
     vloc_psi     :   2242.08s CPU   3566.98s WALL (   55292 calls)
     add_vuspsi   :     80.60s CPU     90.72s WALL (   55292 calls)

     General routines
     calbec       :   1001.41s CPU   1625.17s WALL (   58692 calls)
     fft          :      9.20s CPU     13.56s WALL (    2063 calls)
     ffts         :      1.05s CPU      1.61s WALL (     322 calls)
     fftw         :   2510.13s CPU   3980.23s WALL ( 1237942 calls)
     interpolate  :      1.32s CPU      2.01s WALL (     162 calls)

     Parallel routines

     PWSCF        :      1h47m CPU      2h49m WALL


   This run was terminated on:  15:28:25   8Dec2021            

=------------------------------------------------------------------------------=
   JOB DONE.
=------------------------------------------------------------------------------=
