
     Program PWSCF v.6.8 starts on  9Dec2021 at  5:37:44 

     This program is part of the open-source Quantum ESPRESSO suite
     for quantum simulation of materials; please cite
         "P. Giannozzi et al., J. Phys.:Condens. Matter 21 395502 (2009);
         "P. Giannozzi et al., J. Phys.:Condens. Matter 29 465901 (2017);
         "P. Giannozzi et al., J. Chem. Phys. 152 154105 (2020);
          URL http://www.quantum-espresso.org", 
     in publications or presentations arising from this work. More details at
     http://www.quantum-espresso.org/quote

     Parallel version (MPI), running on    32 processors

     MPI processes distributed on     1 nodes
     R & G space division:  proc/nbgrp/npool/nimage =      32
     35683 MiB available memory on the printing compute node when the environment starts

     Reading input from runu.in
Warning: card &CELL ignored
Warning: card    CELL_DYNAMICS = 'BFGS' , ignored
Warning: card    CELL_DOFREE = 'ALL', ignored
Warning: card    PRESS_CONV_THR = 0.5 , ! THIS IS THE DEFAULT ignored
Warning: card  / ignored

     Current dimensions of program PWSCF are:
     Max number of different atomic species (ntypx) = 10
     Max number of k-points (npk) =  40000
     Max angular momentum in pseudopotentials (lmaxx) =  4
     file U.pbe-spfn-rrkjus_psl.1.0.0.UPF: wavefunction(s)  5F renormalized
     Found symmetry operation: I + ( -0.5000  0.5000  0.0000)
     This is a supercell, fractional translations are disabled
     Message from routine setup:
     using ibrav=0 with symmetry is DISCOURAGED, use correct ibrav instead

     Subspace diagonalization in iterative solution of the eigenvalue problem:
     a serial algorithm will be used


     Parallelization info
     --------------------
     sticks:   dense  smooth     PW     G-vecs:    dense   smooth      PW
     Min         167      84     23                 9203     3256     483
     Max         168      85     24                 9208     3259     488
     Sum        5373    2697    749               294603   104223   15515

     Using Slab Decomposition



     bravais-lattice index     =            0
     lattice parameter (alat)  =       8.3989  a.u.
     unit-cell volume          =     586.5970 (a.u.)^3
     number of atoms/cell      =            4
     number of atomic types    =            1
     number of electrons       =        56.00
     number of Kohn-Sham states=           32
     kinetic-energy cutoff     =     120.0000  Ry
     charge density cutoff     =     960.0000  Ry
     scf convergence threshold =      1.0E-08
     mixing beta               =       0.3000
     number of iterations used =            8  plain     mixing
     Exchange-correlation= PBE
                           (   1   4   3   4   0   0   0)

     celldm(1)=   8.398930  celldm(2)=   0.000000  celldm(3)=   0.000000
     celldm(4)=   0.000000  celldm(5)=   0.000000  celldm(6)=   0.000000

     crystal axes: (cart. coord. in units of alat)
               a(1) = (   1.000000   0.000000   0.000000 )  
               a(2) = (   0.000000   0.995025   0.000000 )  
               a(3) = (   0.000000   0.000000   0.995025 )  

     reciprocal axes: (cart. coord. in units 2 pi/alat)
               b(1) = (  1.000000  0.000000  0.000000 )  
               b(2) = (  0.000000  1.005000  0.000000 )  
               b(3) = (  0.000000  0.000000  1.005000 )  


     PseudoPot. # 1 for U  read from file:
     /home/myhawary/QE/runs/pseudo/U.pbe-spfn-rrkjus_psl.1.0.0.UPF
     MD5 check sum: b50a7459bb2a1ad67e79ea3a31ec714c
     Pseudo is Ultrasoft + core correction, Zval = 14.0
     Generated using &quot;atomic&quot; code by A. Dal Corso  v.6.2.2
     Using radial grid of 1291 points,  8 beta functions with: 
                l(1) =   0
                l(2) =   0
                l(3) =   1
                l(4) =   1
                l(5) =   2
                l(6) =   2
                l(7) =   3
                l(8) =   3
     Q(r) pseudized with 0 coefficients 


     atomic species   valence    mass     pseudopotential
        U             14.00   238.00000     U ( 1.00)

     Starting magnetic structure 
     atomic species   magnetization
        U            0.100

     16 Sym. Ops., with inversion, found


                                    s                        frac. trans.

      isym =  1     identity                                     

 cryst.   s( 1) = (     1          0          0      )
                  (     0          1          0      )
                  (     0          0          1      )

 cart.    s( 1) = (  1.0000000  0.0000000  0.0000000 )
                  (  0.0000000  1.0000000  0.0000000 )
                  (  0.0000000  0.0000000  1.0000000 )


      isym =  2     180 deg rotation - cart. axis [0,0,1]        

 cryst.   s( 2) = (    -1          0          0      )
                  (     0         -1          0      )
                  (     0          0          1      )

 cart.    s( 2) = ( -1.0000000  0.0000000  0.0000000 )
                  (  0.0000000 -1.0000000  0.0000000 )
                  (  0.0000000  0.0000000  1.0000000 )


      isym =  3     180 deg rotation - cart. axis [0,1,0]        

 cryst.   s( 3) = (    -1          0          0      )
                  (     0          1          0      )
                  (     0          0         -1      )

 cart.    s( 3) = ( -1.0000000  0.0000000  0.0000000 )
                  (  0.0000000  1.0000000  0.0000000 )
                  (  0.0000000  0.0000000 -1.0000000 )


      isym =  4     180 deg rotation - cart. axis [1,0,0]        

 cryst.   s( 4) = (     1          0          0      )
                  (     0         -1          0      )
                  (     0          0         -1      )

 cart.    s( 4) = (  1.0000000  0.0000000  0.0000000 )
                  (  0.0000000 -1.0000000  0.0000000 )
                  (  0.0000000  0.0000000 -1.0000000 )


      isym =  5     180 deg rotation - cart. axis [0,1,1]        

 cryst.   s( 5) = (    -1          0          0      )
                  (     0          0          1      )
                  (     0          1          0      )

 cart.    s( 5) = ( -1.0000000  0.0000000  0.0000000 )
                  (  0.0000000  0.0000000  1.0000000 )
                  (  0.0000000  1.0000000  0.0000000 )


      isym =  6     180 deg rotation - cart. axis [0,1,-1]       

 cryst.   s( 6) = (    -1          0          0      )
                  (     0          0         -1      )
                  (     0         -1          0      )

 cart.    s( 6) = ( -1.0000000  0.0000000  0.0000000 )
                  (  0.0000000  0.0000000 -1.0000000 )
                  (  0.0000000 -1.0000000  0.0000000 )


      isym =  7      90 deg rotation - cart. axis [-1,0,0]       

 cryst.   s( 7) = (     1          0          0      )
                  (     0          0         -1      )
                  (     0          1          0      )

 cart.    s( 7) = (  1.0000000  0.0000000  0.0000000 )
                  (  0.0000000  0.0000000  1.0000000 )
                  (  0.0000000 -1.0000000  0.0000000 )


      isym =  8      90 deg rotation - cart. axis [1,0,0]        

 cryst.   s( 8) = (     1          0          0      )
                  (     0          0          1      )
                  (     0         -1          0      )

 cart.    s( 8) = (  1.0000000  0.0000000  0.0000000 )
                  (  0.0000000  0.0000000 -1.0000000 )
                  (  0.0000000  1.0000000  0.0000000 )


      isym =  9     inversion                                    

 cryst.   s( 9) = (    -1          0          0      )
                  (     0         -1          0      )
                  (     0          0         -1      )

 cart.    s( 9) = ( -1.0000000  0.0000000  0.0000000 )
                  (  0.0000000 -1.0000000  0.0000000 )
                  (  0.0000000  0.0000000 -1.0000000 )


      isym = 10     inv. 180 deg rotation - cart. axis [0,0,1]   

 cryst.   s(10) = (     1          0          0      )
                  (     0          1          0      )
                  (     0          0         -1      )

 cart.    s(10) = (  1.0000000  0.0000000  0.0000000 )
                  (  0.0000000  1.0000000  0.0000000 )
                  (  0.0000000  0.0000000 -1.0000000 )


      isym = 11     inv. 180 deg rotation - cart. axis [0,1,0]   

 cryst.   s(11) = (     1          0          0      )
                  (     0         -1          0      )
                  (     0          0          1      )

 cart.    s(11) = (  1.0000000  0.0000000  0.0000000 )
                  (  0.0000000 -1.0000000  0.0000000 )
                  (  0.0000000  0.0000000  1.0000000 )


      isym = 12     inv. 180 deg rotation - cart. axis [1,0,0]   

 cryst.   s(12) = (    -1          0          0      )
                  (     0          1          0      )
                  (     0          0          1      )

 cart.    s(12) = ( -1.0000000  0.0000000  0.0000000 )
                  (  0.0000000  1.0000000  0.0000000 )
                  (  0.0000000  0.0000000  1.0000000 )


      isym = 13     inv. 180 deg rotation - cart. axis [0,1,1]   

 cryst.   s(13) = (     1          0          0      )
                  (     0          0         -1      )
                  (     0         -1          0      )

 cart.    s(13) = (  1.0000000  0.0000000  0.0000000 )
                  (  0.0000000  0.0000000 -1.0000000 )
                  (  0.0000000 -1.0000000  0.0000000 )


      isym = 14     inv. 180 deg rotation - cart. axis [0,1,-1]  

 cryst.   s(14) = (     1          0          0      )
                  (     0          0          1      )
                  (     0          1          0      )

 cart.    s(14) = (  1.0000000  0.0000000  0.0000000 )
                  (  0.0000000  0.0000000  1.0000000 )
                  (  0.0000000  1.0000000  0.0000000 )


      isym = 15     inv.  90 deg rotation - cart. axis [-1,0,0]  

 cryst.   s(15) = (    -1          0          0      )
                  (     0          0          1      )
                  (     0         -1          0      )

 cart.    s(15) = ( -1.0000000  0.0000000  0.0000000 )
                  (  0.0000000  0.0000000 -1.0000000 )
                  (  0.0000000  1.0000000  0.0000000 )


      isym = 16     inv.  90 deg rotation - cart. axis [1,0,0]   

 cryst.   s(16) = (    -1          0          0      )
                  (     0          0         -1      )
                  (     0          1          0      )

 cart.    s(16) = ( -1.0000000  0.0000000  0.0000000 )
                  (  0.0000000  0.0000000  1.0000000 )
                  (  0.0000000 -1.0000000  0.0000000 )


   Cartesian axes

     site n.     atom                  positions (alat units)
         1           U   tau(   1) = (   0.0000000   0.0000000   0.0000000  )
         2           U   tau(   2) = (   0.5000000   0.4975125   0.0000000  )
         3           U   tau(   3) = (   0.5000000   0.0000000   0.4975125  )
         4           U   tau(   4) = (   0.0000000   0.4975125   0.4975125  )

   Crystallographic axes

     site n.     atom                  positions (cryst. coord.)
         1           U   tau(   1) = (  0.0000000  0.0000000  0.0000000  )
         2           U   tau(   2) = (  0.5000000  0.5000000  0.0000000  )
         3           U   tau(   3) = (  0.5000000  0.0000000  0.5000000  )
         4           U   tau(   4) = (  0.0000000  0.5000000  0.5000000  )

     number of k points=    40  Marzari-Vanderbilt smearing, width (Ry)=  0.0500
                       cart. coord. in units 2pi/alat
        k(    1) = (   0.0000000   0.0000000   0.0000000), wk =   0.0046296
        k(    2) = (   0.0000000   0.0000000   0.1675000), wk =   0.0185185
        k(    3) = (   0.0000000   0.0000000   0.3350000), wk =   0.0185185
        k(    4) = (   0.0000000   0.0000000  -0.5025000), wk =   0.0092593
        k(    5) = (   0.0000000   0.1675000   0.1675000), wk =   0.0185185
        k(    6) = (   0.0000000   0.1675000   0.3350000), wk =   0.0370370
        k(    7) = (   0.0000000   0.1675000  -0.5025000), wk =   0.0185185
        k(    8) = (   0.0000000   0.3350000   0.3350000), wk =   0.0185185
        k(    9) = (   0.0000000   0.3350000  -0.5025000), wk =   0.0185185
        k(   10) = (   0.0000000  -0.5025000  -0.5025000), wk =   0.0046296
        k(   11) = (   0.1666667   0.0000000   0.0000000), wk =   0.0092593
        k(   12) = (   0.1666667   0.0000000   0.1675000), wk =   0.0370370
        k(   13) = (   0.1666667   0.0000000   0.3350000), wk =   0.0370370
        k(   14) = (   0.1666667   0.0000000  -0.5025000), wk =   0.0185185
        k(   15) = (   0.1666667   0.1675000   0.1675000), wk =   0.0370370
        k(   16) = (   0.1666667   0.1675000   0.3350000), wk =   0.0740741
        k(   17) = (   0.1666667   0.1675000  -0.5025000), wk =   0.0370370
        k(   18) = (   0.1666667   0.3350000   0.3350000), wk =   0.0370370
        k(   19) = (   0.1666667   0.3350000  -0.5025000), wk =   0.0370370
        k(   20) = (   0.1666667  -0.5025000  -0.5025000), wk =   0.0092593
        k(   21) = (   0.3333333   0.0000000   0.0000000), wk =   0.0092593
        k(   22) = (   0.3333333   0.0000000   0.1675000), wk =   0.0370370
        k(   23) = (   0.3333333   0.0000000   0.3350000), wk =   0.0370370
        k(   24) = (   0.3333333   0.0000000  -0.5025000), wk =   0.0185185
        k(   25) = (   0.3333333   0.1675000   0.1675000), wk =   0.0370370
        k(   26) = (   0.3333333   0.1675000   0.3350000), wk =   0.0740741
        k(   27) = (   0.3333333   0.1675000  -0.5025000), wk =   0.0370370
        k(   28) = (   0.3333333   0.3350000   0.3350000), wk =   0.0370370
        k(   29) = (   0.3333333   0.3350000  -0.5025000), wk =   0.0370370
        k(   30) = (   0.3333333  -0.5025000  -0.5025000), wk =   0.0092593
        k(   31) = (  -0.5000000   0.0000000   0.0000000), wk =   0.0046296
        k(   32) = (  -0.5000000   0.0000000   0.1675000), wk =   0.0185185
        k(   33) = (  -0.5000000   0.0000000   0.3350000), wk =   0.0185185
        k(   34) = (  -0.5000000   0.0000000  -0.5025000), wk =   0.0092593
        k(   35) = (  -0.5000000   0.1675000   0.1675000), wk =   0.0185185
        k(   36) = (  -0.5000000   0.1675000   0.3350000), wk =   0.0370370
        k(   37) = (  -0.5000000   0.1675000  -0.5025000), wk =   0.0185185
        k(   38) = (  -0.5000000   0.3350000   0.3350000), wk =   0.0185185
        k(   39) = (  -0.5000000   0.3350000  -0.5025000), wk =   0.0185185
        k(   40) = (  -0.5000000  -0.5025000  -0.5025000), wk =   0.0046296

                       cryst. coord.
        k(    1) = (   0.0000000   0.0000000   0.0000000), wk =   0.0046296
        k(    2) = (   0.0000000   0.0000000   0.1666667), wk =   0.0185185
        k(    3) = (   0.0000000   0.0000000   0.3333333), wk =   0.0185185
        k(    4) = (   0.0000000   0.0000000  -0.5000000), wk =   0.0092593
        k(    5) = (   0.0000000   0.1666667   0.1666667), wk =   0.0185185
        k(    6) = (   0.0000000   0.1666667   0.3333333), wk =   0.0370370
        k(    7) = (   0.0000000   0.1666667  -0.5000000), wk =   0.0185185
        k(    8) = (   0.0000000   0.3333333   0.3333333), wk =   0.0185185
        k(    9) = (   0.0000000   0.3333333  -0.5000000), wk =   0.0185185
        k(   10) = (   0.0000000  -0.5000000  -0.5000000), wk =   0.0046296
        k(   11) = (   0.1666667   0.0000000   0.0000000), wk =   0.0092593
        k(   12) = (   0.1666667   0.0000000   0.1666667), wk =   0.0370370
        k(   13) = (   0.1666667   0.0000000   0.3333333), wk =   0.0370370
        k(   14) = (   0.1666667   0.0000000  -0.5000000), wk =   0.0185185
        k(   15) = (   0.1666667   0.1666667   0.1666667), wk =   0.0370370
        k(   16) = (   0.1666667   0.1666667   0.3333333), wk =   0.0740741
        k(   17) = (   0.1666667   0.1666667  -0.5000000), wk =   0.0370370
        k(   18) = (   0.1666667   0.3333333   0.3333333), wk =   0.0370370
        k(   19) = (   0.1666667   0.3333333  -0.5000000), wk =   0.0370370
        k(   20) = (   0.1666667  -0.5000000  -0.5000000), wk =   0.0092593
        k(   21) = (   0.3333333   0.0000000   0.0000000), wk =   0.0092593
        k(   22) = (   0.3333333   0.0000000   0.1666667), wk =   0.0370370
        k(   23) = (   0.3333333   0.0000000   0.3333333), wk =   0.0370370
        k(   24) = (   0.3333333   0.0000000  -0.5000000), wk =   0.0185185
        k(   25) = (   0.3333333   0.1666667   0.1666667), wk =   0.0370370
        k(   26) = (   0.3333333   0.1666667   0.3333333), wk =   0.0740741
        k(   27) = (   0.3333333   0.1666667  -0.5000000), wk =   0.0370370
        k(   28) = (   0.3333333   0.3333333   0.3333333), wk =   0.0370370
        k(   29) = (   0.3333333   0.3333333  -0.5000000), wk =   0.0370370
        k(   30) = (   0.3333333  -0.5000000  -0.5000000), wk =   0.0092593
        k(   31) = (  -0.5000000   0.0000000   0.0000000), wk =   0.0046296
        k(   32) = (  -0.5000000   0.0000000   0.1666667), wk =   0.0185185
        k(   33) = (  -0.5000000   0.0000000   0.3333333), wk =   0.0185185
        k(   34) = (  -0.5000000   0.0000000  -0.5000000), wk =   0.0092593
        k(   35) = (  -0.5000000   0.1666667   0.1666667), wk =   0.0185185
        k(   36) = (  -0.5000000   0.1666667   0.3333333), wk =   0.0370370
        k(   37) = (  -0.5000000   0.1666667  -0.5000000), wk =   0.0185185
        k(   38) = (  -0.5000000   0.3333333   0.3333333), wk =   0.0185185
        k(   39) = (  -0.5000000   0.3333333  -0.5000000), wk =   0.0185185
        k(   40) = (  -0.5000000  -0.5000000  -0.5000000), wk =   0.0046296

     Dense  grid:   294603 G-vectors     FFT dimensions: (  90,  90,  90)

     Smooth grid:   104223 G-vectors     FFT dimensions: (  60,  60,  60)

     Dynamical RAM for                 wfc:       0.20 MB

     Dynamical RAM for     wfc (w. buffer):      16.06 MB

     Dynamical RAM for           str. fact:       0.14 MB

     Dynamical RAM for           local pot:       0.00 MB

     Dynamical RAM for          nlocal pot:       0.79 MB

     Dynamical RAM for                qrad:       5.96 MB

     Dynamical RAM for          rho,v,vnew:       1.96 MB

     Dynamical RAM for               rhoin:       0.65 MB

     Dynamical RAM for            rho*nmix:       4.50 MB

     Dynamical RAM for           G-vectors:       0.55 MB

     Dynamical RAM for          h,s,v(r/c):       0.19 MB

     Dynamical RAM for          <psi|beta>:       0.06 MB

     Dynamical RAM for                 psi:       0.40 MB

     Dynamical RAM for                hpsi:       0.40 MB

     Dynamical RAM for                spsi:       0.40 MB

     Dynamical RAM for      wfcinit/wfcrot:       0.42 MB

     Dynamical RAM for           addusdens:      78.68 MB

     Dynamical RAM for          addusforce:      79.62 MB

     Dynamical RAM for         addusstress:      81.98 MB

     Estimated static dynamical RAM per process >      27.51 MB

     Estimated max dynamical RAM per process >     113.99 MB

     Estimated total dynamical RAM >       3.56 GB
     Generating pointlists ...
     new r_m :   0.2902 (alat units)  2.4376 (a.u.) for type    1

     Initial potential from superposition of free atoms

     starting charge   55.98204, renormalised to   56.00000
     Starting wfcs are random

     total cpu time spent up to now is        6.4 secs

     Self-consistent Calculation

     iteration #  1     ecut=   120.00 Ry     beta= 0.30
     Davidson diagonalization with overlap

---- Real-time Memory Report at c_bands before calling an iterative solver
           116 MiB given to the printing process from OS
             0 MiB allocation reported by mallinfo(arena+hblkhd)
         34444 MiB available memory on the node where the printing process lives
------------------
     ethr =  1.00E-02,  avg # of iterations = 11.4

     total cpu time spent up to now is       45.9 secs

     total energy              =    -516.52674549 Ry
     estimated scf accuracy    <       1.78589485 Ry

     total magnetization       =     2.45 Bohr mag/cell
     absolute magnetization    =     2.45 Bohr mag/cell

     iteration #  2     ecut=   120.00 Ry     beta= 0.30
     Davidson diagonalization with overlap

---- Real-time Memory Report at c_bands before calling an iterative solver
           134 MiB given to the printing process from OS
             0 MiB allocation reported by mallinfo(arena+hblkhd)
         34232 MiB available memory on the node where the printing process lives
------------------
     ethr =  3.19E-03,  avg # of iterations =  6.1

     total cpu time spent up to now is       66.0 secs

     total energy              =    -517.27676592 Ry
     estimated scf accuracy    <       0.08468438 Ry

     total magnetization       =     2.44 Bohr mag/cell
     absolute magnetization    =     2.44 Bohr mag/cell

     iteration #  3     ecut=   120.00 Ry     beta= 0.30
     Davidson diagonalization with overlap

---- Real-time Memory Report at c_bands before calling an iterative solver
           134 MiB given to the printing process from OS
             0 MiB allocation reported by mallinfo(arena+hblkhd)
         34227 MiB available memory on the node where the printing process lives
------------------
     c_bands:  1 eigenvalues not converged
     c_bands:  1 eigenvalues not converged
     c_bands:  1 eigenvalues not converged
     c_bands:  2 eigenvalues not converged
     c_bands:  2 eigenvalues not converged
     c_bands:  2 eigenvalues not converged
     c_bands:  1 eigenvalues not converged
     c_bands:  2 eigenvalues not converged
     c_bands:  4 eigenvalues not converged
     c_bands:  3 eigenvalues not converged
     c_bands:  1 eigenvalues not converged
     c_bands:  2 eigenvalues not converged
     c_bands:  4 eigenvalues not converged
     c_bands:  2 eigenvalues not converged
     c_bands:  3 eigenvalues not converged
     c_bands:  3 eigenvalues not converged
     c_bands:  4 eigenvalues not converged
     c_bands:  2 eigenvalues not converged
     c_bands:  2 eigenvalues not converged
     c_bands:  1 eigenvalues not converged
     c_bands:  1 eigenvalues not converged
     c_bands:  2 eigenvalues not converged
     c_bands:  4 eigenvalues not converged
     c_bands:  3 eigenvalues not converged
     c_bands:  1 eigenvalues not converged
     c_bands:  2 eigenvalues not converged
     c_bands:  2 eigenvalues not converged
     c_bands:  3 eigenvalues not converged
     c_bands:  5 eigenvalues not converged
     c_bands:  1 eigenvalues not converged
     c_bands:  2 eigenvalues not converged
     c_bands:  2 eigenvalues not converged
     c_bands:  2 eigenvalues not converged
     c_bands:  1 eigenvalues not converged
     c_bands:  1 eigenvalues not converged
     c_bands:  2 eigenvalues not converged
     c_bands:  1 eigenvalues not converged
     c_bands:  1 eigenvalues not converged
     c_bands:  4 eigenvalues not converged
     c_bands:  4 eigenvalues not converged
     c_bands:  2 eigenvalues not converged
     c_bands:  3 eigenvalues not converged
     c_bands:  4 eigenvalues not converged
     c_bands:  2 eigenvalues not converged
     c_bands:  4 eigenvalues not converged
     c_bands:  3 eigenvalues not converged
     c_bands:  5 eigenvalues not converged
     c_bands:  1 eigenvalues not converged
     c_bands:  3 eigenvalues not converged
     c_bands:  3 eigenvalues not converged
     c_bands:  2 eigenvalues not converged
     c_bands:  3 eigenvalues not converged
     c_bands:  5 eigenvalues not converged
     c_bands:  5 eigenvalues not converged
     c_bands:  1 eigenvalues not converged
     c_bands:  1 eigenvalues not converged
     c_bands:  3 eigenvalues not converged
     c_bands:  1 eigenvalues not converged
     c_bands:  4 eigenvalues not converged
     c_bands:  4 eigenvalues not converged
     c_bands:  4 eigenvalues not converged
     c_bands:  1 eigenvalues not converged
     ethr =  1.51E-04,  avg # of iterations = 19.9

     total cpu time spent up to now is      105.4 secs

     total energy              =    -517.46208206 Ry
     estimated scf accuracy    <       0.12250657 Ry

     total magnetization       =     2.65 Bohr mag/cell
     absolute magnetization    =     2.66 Bohr mag/cell

     iteration #  4     ecut=   120.00 Ry     beta= 0.30
     Davidson diagonalization with overlap

---- Real-time Memory Report at c_bands before calling an iterative solver
           135 MiB given to the printing process from OS
             0 MiB allocation reported by mallinfo(arena+hblkhd)
         34228 MiB available memory on the node where the printing process lives
------------------
     c_bands:  2 eigenvalues not converged
     c_bands:  2 eigenvalues not converged
     c_bands:  1 eigenvalues not converged
     c_bands:  2 eigenvalues not converged
     c_bands:  1 eigenvalues not converged
     c_bands:  1 eigenvalues not converged
     c_bands:  1 eigenvalues not converged
     c_bands:  1 eigenvalues not converged
     c_bands:  2 eigenvalues not converged
     c_bands:  1 eigenvalues not converged
     c_bands:  2 eigenvalues not converged
     c_bands:  3 eigenvalues not converged
     c_bands:  2 eigenvalues not converged
     c_bands:  2 eigenvalues not converged
     c_bands:  2 eigenvalues not converged
     c_bands:  4 eigenvalues not converged
     c_bands:  1 eigenvalues not converged
     c_bands:  2 eigenvalues not converged
     c_bands:  1 eigenvalues not converged
     c_bands:  1 eigenvalues not converged
     c_bands:  2 eigenvalues not converged
     c_bands:  2 eigenvalues not converged
     c_bands:  1 eigenvalues not converged
     c_bands:  1 eigenvalues not converged
     c_bands:  1 eigenvalues not converged
     c_bands:  3 eigenvalues not converged
     c_bands:  2 eigenvalues not converged
     c_bands:  1 eigenvalues not converged
     c_bands:  3 eigenvalues not converged
     c_bands:  3 eigenvalues not converged
     c_bands:  1 eigenvalues not converged
     c_bands:  1 eigenvalues not converged
     c_bands:  1 eigenvalues not converged
     c_bands:  2 eigenvalues not converged
     c_bands:  2 eigenvalues not converged
     c_bands:  5 eigenvalues not converged
     c_bands:  3 eigenvalues not converged
     ethr =  1.51E-04,  avg # of iterations = 15.6

     total cpu time spent up to now is      127.8 secs

     total energy              =    -517.46273004 Ry
     estimated scf accuracy    <       0.12795054 Ry

     total magnetization       =     2.66 Bohr mag/cell
     absolute magnetization    =     2.67 Bohr mag/cell

     iteration #  5     ecut=   120.00 Ry     beta= 0.30
     Davidson diagonalization with overlap

---- Real-time Memory Report at c_bands before calling an iterative solver
           135 MiB given to the printing process from OS
             0 MiB allocation reported by mallinfo(arena+hblkhd)
         34213 MiB available memory on the node where the printing process lives
------------------
     c_bands:  1 eigenvalues not converged
     c_bands:  1 eigenvalues not converged
     ethr =  1.51E-04,  avg # of iterations =  6.4

     total cpu time spent up to now is      144.4 secs

     total energy              =    -517.47873610 Ry
     estimated scf accuracy    <       0.01837677 Ry

     total magnetization       =     2.43 Bohr mag/cell
     absolute magnetization    =     2.44 Bohr mag/cell

     iteration #  6     ecut=   120.00 Ry     beta= 0.30
     Davidson diagonalization with overlap

---- Real-time Memory Report at c_bands before calling an iterative solver
           135 MiB given to the printing process from OS
             0 MiB allocation reported by mallinfo(arena+hblkhd)
         34206 MiB available memory on the node where the printing process lives
------------------
     c_bands:  2 eigenvalues not converged
     c_bands:  1 eigenvalues not converged
     c_bands:  1 eigenvalues not converged
     c_bands:  2 eigenvalues not converged
     c_bands:  2 eigenvalues not converged
     c_bands:  2 eigenvalues not converged
     c_bands:  2 eigenvalues not converged
     c_bands:  1 eigenvalues not converged
     c_bands:  2 eigenvalues not converged
     c_bands:  2 eigenvalues not converged
     c_bands:  1 eigenvalues not converged
     c_bands:  1 eigenvalues not converged
     c_bands:  1 eigenvalues not converged
     c_bands:  1 eigenvalues not converged
     c_bands:  4 eigenvalues not converged
     c_bands:  1 eigenvalues not converged
     c_bands:  1 eigenvalues not converged
     c_bands:  2 eigenvalues not converged
     c_bands:  1 eigenvalues not converged
     c_bands:  4 eigenvalues not converged
     c_bands:  2 eigenvalues not converged
     c_bands:  1 eigenvalues not converged
     c_bands:  3 eigenvalues not converged
     c_bands:  1 eigenvalues not converged
     c_bands:  1 eigenvalues not converged
     c_bands:  1 eigenvalues not converged
     c_bands:  1 eigenvalues not converged
     c_bands:  2 eigenvalues not converged
     c_bands:  1 eigenvalues not converged
     c_bands:  2 eigenvalues not converged
     c_bands:  1 eigenvalues not converged
     c_bands:  2 eigenvalues not converged
     c_bands:  2 eigenvalues not converged
     c_bands:  3 eigenvalues not converged
     c_bands:  1 eigenvalues not converged
     c_bands:  2 eigenvalues not converged
     c_bands:  1 eigenvalues not converged
     c_bands:  2 eigenvalues not converged
     c_bands:  2 eigenvalues not converged
     c_bands:  1 eigenvalues not converged
     c_bands:  1 eigenvalues not converged
     c_bands:  1 eigenvalues not converged
     c_bands:  1 eigenvalues not converged
     c_bands:  2 eigenvalues not converged
     c_bands:  4 eigenvalues not converged
     c_bands:  1 eigenvalues not converged
     c_bands:  2 eigenvalues not converged
     c_bands:  1 eigenvalues not converged
     c_bands:  3 eigenvalues not converged
     c_bands:  3 eigenvalues not converged
     ethr =  3.28E-05,  avg # of iterations = 18.6

     total cpu time spent up to now is      175.4 secs

     total energy              =    -517.49098631 Ry
     estimated scf accuracy    <       0.09234114 Ry

     total magnetization       =     2.13 Bohr mag/cell
     absolute magnetization    =     2.15 Bohr mag/cell

     iteration #  7     ecut=   120.00 Ry     beta= 0.30
     Davidson diagonalization with overlap

---- Real-time Memory Report at c_bands before calling an iterative solver
           135 MiB given to the printing process from OS
             0 MiB allocation reported by mallinfo(arena+hblkhd)
         34204 MiB available memory on the node where the printing process lives
------------------
     c_bands:  1 eigenvalues not converged
     c_bands:  1 eigenvalues not converged
     c_bands:  3 eigenvalues not converged
     c_bands:  3 eigenvalues not converged
     c_bands:  1 eigenvalues not converged
     c_bands:  2 eigenvalues not converged
     c_bands:  1 eigenvalues not converged
     c_bands:  1 eigenvalues not converged
     ethr =  3.28E-05,  avg # of iterations =  6.1

     total cpu time spent up to now is      189.8 secs

     total energy              =    -517.48618907 Ry
     estimated scf accuracy    <       0.06480612 Ry

     total magnetization       =     2.07 Bohr mag/cell
     absolute magnetization    =     2.09 Bohr mag/cell

     iteration #  8     ecut=   120.00 Ry     beta= 0.30
     Davidson diagonalization with overlap

---- Real-time Memory Report at c_bands before calling an iterative solver
           136 MiB given to the printing process from OS
             0 MiB allocation reported by mallinfo(arena+hblkhd)
         34199 MiB available memory on the node where the printing process lives
------------------
     c_bands:  2 eigenvalues not converged
     c_bands:  1 eigenvalues not converged
     c_bands:  1 eigenvalues not converged
     c_bands:  1 eigenvalues not converged
     c_bands:  1 eigenvalues not converged
     c_bands:  1 eigenvalues not converged
     c_bands:  1 eigenvalues not converged
     c_bands:  1 eigenvalues not converged
     c_bands:  1 eigenvalues not converged
     c_bands:  1 eigenvalues not converged
     c_bands:  1 eigenvalues not converged
     c_bands:  1 eigenvalues not converged
     c_bands:  1 eigenvalues not converged
     ethr =  3.28E-05,  avg # of iterations = 11.6

     total cpu time spent up to now is      209.2 secs

     total energy              =    -517.48890130 Ry
     estimated scf accuracy    <       0.01579525 Ry

     total magnetization       =     2.01 Bohr mag/cell
     absolute magnetization    =     2.03 Bohr mag/cell

     iteration #  9     ecut=   120.00 Ry     beta= 0.30
     Davidson diagonalization with overlap

---- Real-time Memory Report at c_bands before calling an iterative solver
           136 MiB given to the printing process from OS
             0 MiB allocation reported by mallinfo(arena+hblkhd)
         34197 MiB available memory on the node where the printing process lives
------------------
     c_bands:  1 eigenvalues not converged
     c_bands:  2 eigenvalues not converged
     c_bands:  1 eigenvalues not converged
     ethr =  2.82E-05,  avg # of iterations =  3.3

     total cpu time spent up to now is      221.7 secs

     total energy              =    -517.48862959 Ry
     estimated scf accuracy    <       0.00428493 Ry

     total magnetization       =     1.98 Bohr mag/cell
     absolute magnetization    =     2.00 Bohr mag/cell

     iteration # 10     ecut=   120.00 Ry     beta= 0.30
     Davidson diagonalization with overlap

---- Real-time Memory Report at c_bands before calling an iterative solver
           137 MiB given to the printing process from OS
             0 MiB allocation reported by mallinfo(arena+hblkhd)
         34190 MiB available memory on the node where the printing process lives
------------------
     c_bands:  2 eigenvalues not converged
     c_bands:  1 eigenvalues not converged
     c_bands:  2 eigenvalues not converged
     c_bands:  2 eigenvalues not converged
     c_bands:  3 eigenvalues not converged
     c_bands:  2 eigenvalues not converged
     c_bands:  5 eigenvalues not converged
     c_bands:  3 eigenvalues not converged
     c_bands:  5 eigenvalues not converged
     c_bands:  2 eigenvalues not converged
     c_bands:  2 eigenvalues not converged
     c_bands:  2 eigenvalues not converged
     c_bands:  2 eigenvalues not converged
     c_bands:  2 eigenvalues not converged
     c_bands:  2 eigenvalues not converged
     c_bands:  3 eigenvalues not converged
     c_bands:  3 eigenvalues not converged
     c_bands:  1 eigenvalues not converged
     c_bands:  2 eigenvalues not converged
     c_bands:  4 eigenvalues not converged
     c_bands:  4 eigenvalues not converged
     c_bands:  4 eigenvalues not converged
     c_bands:  2 eigenvalues not converged
     c_bands:  2 eigenvalues not converged
     c_bands:  4 eigenvalues not converged
     c_bands:  1 eigenvalues not converged
     c_bands:  1 eigenvalues not converged
     c_bands:  3 eigenvalues not converged
     c_bands:  3 eigenvalues not converged
     c_bands:  1 eigenvalues not converged
     c_bands:  1 eigenvalues not converged
     c_bands:  3 eigenvalues not converged
     c_bands:  2 eigenvalues not converged
     c_bands:  1 eigenvalues not converged
     c_bands:  2 eigenvalues not converged
     c_bands:  5 eigenvalues not converged
     c_bands:  4 eigenvalues not converged
     c_bands:  2 eigenvalues not converged
     c_bands:  1 eigenvalues not converged
     c_bands:  3 eigenvalues not converged
     c_bands:  2 eigenvalues not converged
     c_bands:  1 eigenvalues not converged
     c_bands:  3 eigenvalues not converged
     c_bands:  2 eigenvalues not converged
     c_bands:  2 eigenvalues not converged
     c_bands:  1 eigenvalues not converged
     c_bands:  2 eigenvalues not converged
     c_bands:  1 eigenvalues not converged
     c_bands:  3 eigenvalues not converged
     c_bands:  3 eigenvalues not converged
     c_bands:  2 eigenvalues not converged
     c_bands:  2 eigenvalues not converged
     c_bands:  4 eigenvalues not converged
     c_bands:  1 eigenvalues not converged
     c_bands:  1 eigenvalues not converged
     ethr =  7.65E-06,  avg # of iterations = 19.0

     total cpu time spent up to now is      256.0 secs

     total energy              =    -517.49195655 Ry
     estimated scf accuracy    <       0.10420796 Ry

     total magnetization       =     1.86 Bohr mag/cell
     absolute magnetization    =     1.89 Bohr mag/cell

     iteration # 11     ecut=   120.00 Ry     beta= 0.30
     Davidson diagonalization with overlap

---- Real-time Memory Report at c_bands before calling an iterative solver
           137 MiB given to the printing process from OS
             0 MiB allocation reported by mallinfo(arena+hblkhd)
         34192 MiB available memory on the node where the printing process lives
------------------
     c_bands:  1 eigenvalues not converged
     c_bands:  1 eigenvalues not converged
     c_bands:  3 eigenvalues not converged
     c_bands:  3 eigenvalues not converged
     c_bands:  2 eigenvalues not converged
     c_bands:  1 eigenvalues not converged
     c_bands:  1 eigenvalues not converged
     c_bands:  4 eigenvalues not converged
     c_bands:  1 eigenvalues not converged
     c_bands:  1 eigenvalues not converged
     c_bands:  1 eigenvalues not converged
     c_bands:  1 eigenvalues not converged
     c_bands:  1 eigenvalues not converged
     c_bands:  1 eigenvalues not converged
     c_bands:  3 eigenvalues not converged
     c_bands:  1 eigenvalues not converged
     c_bands:  1 eigenvalues not converged
     c_bands:  3 eigenvalues not converged
     ethr =  7.65E-06,  avg # of iterations =  8.8

     total cpu time spent up to now is      272.1 secs

     total energy              =    -517.49239131 Ry
     estimated scf accuracy    <       0.06317043 Ry

     total magnetization       =     1.89 Bohr mag/cell
     absolute magnetization    =     1.92 Bohr mag/cell

     iteration # 12     ecut=   120.00 Ry     beta= 0.30
     Davidson diagonalization with overlap

---- Real-time Memory Report at c_bands before calling an iterative solver
           137 MiB given to the printing process from OS
             0 MiB allocation reported by mallinfo(arena+hblkhd)
         34191 MiB available memory on the node where the printing process lives
------------------
     c_bands:  2 eigenvalues not converged
     c_bands:  1 eigenvalues not converged
     c_bands:  1 eigenvalues not converged
     c_bands:  1 eigenvalues not converged
     c_bands:  2 eigenvalues not converged
     ethr =  7.65E-06,  avg # of iterations =  3.0

     total cpu time spent up to now is      284.4 secs

     total energy              =    -517.49121935 Ry
     estimated scf accuracy    <       0.05802764 Ry

     total magnetization       =     1.90 Bohr mag/cell
     absolute magnetization    =     1.92 Bohr mag/cell

     iteration # 13     ecut=   120.00 Ry     beta= 0.30
     Davidson diagonalization with overlap

---- Real-time Memory Report at c_bands before calling an iterative solver
           137 MiB given to the printing process from OS
             0 MiB allocation reported by mallinfo(arena+hblkhd)
         34194 MiB available memory on the node where the printing process lives
------------------
     c_bands:  1 eigenvalues not converged
     c_bands:  1 eigenvalues not converged
     ethr =  7.65E-06,  avg # of iterations =  8.3

     total cpu time spent up to now is      300.6 secs

     total energy              =    -517.49030220 Ry
     estimated scf accuracy    <       0.02770236 Ry

     total magnetization       =     1.92 Bohr mag/cell
     absolute magnetization    =     1.95 Bohr mag/cell

     iteration # 14     ecut=   120.00 Ry     beta= 0.30
     Davidson diagonalization with overlap

---- Real-time Memory Report at c_bands before calling an iterative solver
           137 MiB given to the printing process from OS
             0 MiB allocation reported by mallinfo(arena+hblkhd)
         34196 MiB available memory on the node where the printing process lives
------------------
     c_bands:  1 eigenvalues not converged
     c_bands:  3 eigenvalues not converged
     c_bands:  1 eigenvalues not converged
     c_bands:  1 eigenvalues not converged
     c_bands:  1 eigenvalues not converged
     c_bands:  1 eigenvalues not converged
     c_bands:  1 eigenvalues not converged
     c_bands:  2 eigenvalues not converged
     ethr =  7.65E-06,  avg # of iterations = 11.1

     total cpu time spent up to now is      320.2 secs

     total energy              =    -517.49176388 Ry
     estimated scf accuracy    <       0.00027355 Ry

     total magnetization       =     1.93 Bohr mag/cell
     absolute magnetization    =     1.96 Bohr mag/cell

     iteration # 15     ecut=   120.00 Ry     beta= 0.30
     Davidson diagonalization with overlap

---- Real-time Memory Report at c_bands before calling an iterative solver
           137 MiB given to the printing process from OS
             0 MiB allocation reported by mallinfo(arena+hblkhd)
         34190 MiB available memory on the node where the printing process lives
------------------
     c_bands:  1 eigenvalues not converged
     c_bands:  2 eigenvalues not converged
     c_bands:  2 eigenvalues not converged
     c_bands:  2 eigenvalues not converged
     c_bands:  2 eigenvalues not converged
     c_bands:  4 eigenvalues not converged
     c_bands:  4 eigenvalues not converged
     c_bands:  2 eigenvalues not converged
     c_bands:  1 eigenvalues not converged
     c_bands:  2 eigenvalues not converged
     c_bands:  2 eigenvalues not converged
     c_bands:  4 eigenvalues not converged
     c_bands:  5 eigenvalues not converged
     c_bands:  3 eigenvalues not converged
     c_bands:  4 eigenvalues not converged
     c_bands:  3 eigenvalues not converged
     c_bands:  2 eigenvalues not converged
     c_bands:  1 eigenvalues not converged
     c_bands:  3 eigenvalues not converged
     c_bands:  4 eigenvalues not converged
     c_bands:  1 eigenvalues not converged
     c_bands:  4 eigenvalues not converged
     c_bands:  1 eigenvalues not converged
     c_bands:  1 eigenvalues not converged
     c_bands:  2 eigenvalues not converged
     c_bands:  4 eigenvalues not converged
     c_bands:  1 eigenvalues not converged
     c_bands:  1 eigenvalues not converged
     c_bands:  3 eigenvalues not converged
     c_bands:  1 eigenvalues not converged
     c_bands:  2 eigenvalues not converged
     c_bands:  1 eigenvalues not converged
     c_bands:  1 eigenvalues not converged
     c_bands:  2 eigenvalues not converged
     c_bands:  2 eigenvalues not converged
     c_bands:  2 eigenvalues not converged
     c_bands:  3 eigenvalues not converged
     c_bands:  4 eigenvalues not converged
     c_bands:  2 eigenvalues not converged
     c_bands:  3 eigenvalues not converged
     c_bands:  2 eigenvalues not converged
     c_bands:  3 eigenvalues not converged
     c_bands:  1 eigenvalues not converged
     c_bands:  2 eigenvalues not converged
     c_bands:  2 eigenvalues not converged
     c_bands:  2 eigenvalues not converged
     c_bands:  4 eigenvalues not converged
     c_bands:  1 eigenvalues not converged
     c_bands:  1 eigenvalues not converged
     c_bands:  4 eigenvalues not converged
     c_bands:  3 eigenvalues not converged
     c_bands:  2 eigenvalues not converged
     c_bands:  3 eigenvalues not converged
     c_bands:  4 eigenvalues not converged
     c_bands:  4 eigenvalues not converged
     c_bands:  1 eigenvalues not converged
     c_bands:  2 eigenvalues not converged
     c_bands:  4 eigenvalues not converged
     c_bands:  2 eigenvalues not converged
     c_bands:  1 eigenvalues not converged
     c_bands:  3 eigenvalues not converged
     c_bands:  2 eigenvalues not converged
     ethr =  4.88E-07,  avg # of iterations = 19.7

     total cpu time spent up to now is      356.5 secs

     total energy              =    -517.49240149 Ry
     estimated scf accuracy    <       0.00513007 Ry

     total magnetization       =     1.84 Bohr mag/cell
     absolute magnetization    =     1.87 Bohr mag/cell

     iteration # 16     ecut=   120.00 Ry     beta= 0.30
     Davidson diagonalization with overlap

---- Real-time Memory Report at c_bands before calling an iterative solver
           137 MiB given to the printing process from OS
             0 MiB allocation reported by mallinfo(arena+hblkhd)
         34196 MiB available memory on the node where the printing process lives
------------------
     c_bands:  2 eigenvalues not converged
     c_bands:  2 eigenvalues not converged
     c_bands:  2 eigenvalues not converged
     c_bands:  1 eigenvalues not converged
     c_bands:  4 eigenvalues not converged
     c_bands:  1 eigenvalues not converged
     c_bands:  2 eigenvalues not converged
     c_bands:  2 eigenvalues not converged
     c_bands:  4 eigenvalues not converged
     c_bands:  1 eigenvalues not converged
     c_bands:  4 eigenvalues not converged
     c_bands:  2 eigenvalues not converged
     c_bands:  1 eigenvalues not converged
     c_bands:  2 eigenvalues not converged
     c_bands:  2 eigenvalues not converged
     c_bands:  1 eigenvalues not converged
     c_bands:  4 eigenvalues not converged
     c_bands:  2 eigenvalues not converged
     c_bands:  3 eigenvalues not converged
     c_bands:  1 eigenvalues not converged
     c_bands:  1 eigenvalues not converged
     c_bands:  2 eigenvalues not converged
     c_bands:  4 eigenvalues not converged
     c_bands:  2 eigenvalues not converged
     c_bands:  1 eigenvalues not converged
     c_bands:  2 eigenvalues not converged
     c_bands:  4 eigenvalues not converged
     ethr =  4.88E-07,  avg # of iterations =  9.9

     total cpu time spent up to now is      373.5 secs

     total energy              =    -517.49220053 Ry
     estimated scf accuracy    <       0.00565021 Ry

     total magnetization       =     1.77 Bohr mag/cell
     absolute magnetization    =     1.80 Bohr mag/cell

     iteration # 17     ecut=   120.00 Ry     beta= 0.30
     Davidson diagonalization with overlap

---- Real-time Memory Report at c_bands before calling an iterative solver
           137 MiB given to the printing process from OS
             0 MiB allocation reported by mallinfo(arena+hblkhd)
         34193 MiB available memory on the node where the printing process lives
------------------
     c_bands:  1 eigenvalues not converged
     c_bands:  1 eigenvalues not converged
     c_bands:  2 eigenvalues not converged
     c_bands:  1 eigenvalues not converged
     c_bands:  4 eigenvalues not converged
     c_bands:  1 eigenvalues not converged
     c_bands:  2 eigenvalues not converged
     c_bands:  3 eigenvalues not converged
     c_bands:  2 eigenvalues not converged
     c_bands:  1 eigenvalues not converged
     c_bands:  1 eigenvalues not converged
     c_bands:  2 eigenvalues not converged
     c_bands:  1 eigenvalues not converged
     c_bands:  3 eigenvalues not converged
     c_bands:  1 eigenvalues not converged
     c_bands:  1 eigenvalues not converged
     c_bands:  1 eigenvalues not converged
     c_bands:  1 eigenvalues not converged
     c_bands:  2 eigenvalues not converged
     c_bands:  2 eigenvalues not converged
     c_bands:  1 eigenvalues not converged
     c_bands:  2 eigenvalues not converged
     c_bands:  2 eigenvalues not converged
     ethr =  4.88E-07,  avg # of iterations = 12.4

     total cpu time spent up to now is      394.4 secs

     total energy              =    -517.49218015 Ry
     estimated scf accuracy    <       0.00150771 Ry

     total magnetization       =     1.73 Bohr mag/cell
     absolute magnetization    =     1.76 Bohr mag/cell

     iteration # 18     ecut=   120.00 Ry     beta= 0.30
     Davidson diagonalization with overlap

---- Real-time Memory Report at c_bands before calling an iterative solver
           137 MiB given to the printing process from OS
             0 MiB allocation reported by mallinfo(arena+hblkhd)
         34190 MiB available memory on the node where the printing process lives
------------------
     c_bands:  1 eigenvalues not converged
     c_bands:  1 eigenvalues not converged
     c_bands:  1 eigenvalues not converged
     c_bands:  1 eigenvalues not converged
     c_bands:  4 eigenvalues not converged
     c_bands:  4 eigenvalues not converged
     c_bands:  2 eigenvalues not converged
     c_bands:  1 eigenvalues not converged
     c_bands:  1 eigenvalues not converged
     c_bands:  2 eigenvalues not converged
     c_bands:  2 eigenvalues not converged
     c_bands:  4 eigenvalues not converged
     c_bands:  2 eigenvalues not converged
     c_bands:  1 eigenvalues not converged
     c_bands:  3 eigenvalues not converged
     c_bands:  1 eigenvalues not converged
     c_bands:  1 eigenvalues not converged
     c_bands:  1 eigenvalues not converged
     c_bands:  1 eigenvalues not converged
     c_bands:  1 eigenvalues not converged
     c_bands:  1 eigenvalues not converged
     c_bands:  3 eigenvalues not converged
     c_bands:  3 eigenvalues not converged
     c_bands:  2 eigenvalues not converged
     c_bands:  2 eigenvalues not converged
     c_bands:  1 eigenvalues not converged
     c_bands:  1 eigenvalues not converged
     ethr =  4.88E-07,  avg # of iterations = 15.8

     total cpu time spent up to now is      421.9 secs

     total energy              =    -517.49236564 Ry
     estimated scf accuracy    <       0.00072258 Ry

     total magnetization       =     1.62 Bohr mag/cell
     absolute magnetization    =     1.66 Bohr mag/cell

     iteration # 19     ecut=   120.00 Ry     beta= 0.30
     Davidson diagonalization with overlap

---- Real-time Memory Report at c_bands before calling an iterative solver
           137 MiB given to the printing process from OS
             0 MiB allocation reported by mallinfo(arena+hblkhd)
         34189 MiB available memory on the node where the printing process lives
------------------
     c_bands:  1 eigenvalues not converged
     c_bands:  2 eigenvalues not converged
     c_bands:  1 eigenvalues not converged
     c_bands:  2 eigenvalues not converged
     c_bands:  1 eigenvalues not converged
     c_bands:  2 eigenvalues not converged
     c_bands:  2 eigenvalues not converged
     c_bands:  2 eigenvalues not converged
     c_bands:  1 eigenvalues not converged
     c_bands:  1 eigenvalues not converged
     c_bands:  3 eigenvalues not converged
     c_bands:  2 eigenvalues not converged
     c_bands:  2 eigenvalues not converged
     c_bands:  3 eigenvalues not converged
     ethr =  4.88E-07,  avg # of iterations =  6.5

     total cpu time spent up to now is      436.4 secs

     total energy              =    -517.49239639 Ry
     estimated scf accuracy    <       0.00018909 Ry

     total magnetization       =     1.61 Bohr mag/cell
     absolute magnetization    =     1.64 Bohr mag/cell

     iteration # 20     ecut=   120.00 Ry     beta= 0.30
     Davidson diagonalization with overlap

---- Real-time Memory Report at c_bands before calling an iterative solver
           138 MiB given to the printing process from OS
             0 MiB allocation reported by mallinfo(arena+hblkhd)
         34187 MiB available memory on the node where the printing process lives
------------------
     c_bands:  1 eigenvalues not converged
     c_bands:  1 eigenvalues not converged
     c_bands:  2 eigenvalues not converged
     c_bands:  1 eigenvalues not converged
     c_bands:  1 eigenvalues not converged
     c_bands:  2 eigenvalues not converged
     c_bands:  1 eigenvalues not converged
     c_bands:  2 eigenvalues not converged
     c_bands:  1 eigenvalues not converged
     c_bands:  1 eigenvalues not converged
     c_bands:  4 eigenvalues not converged
     c_bands:  1 eigenvalues not converged
     c_bands:  4 eigenvalues not converged
     c_bands:  2 eigenvalues not converged
     c_bands:  3 eigenvalues not converged
     ethr =  3.38E-07,  avg # of iterations =  9.7

     total cpu time spent up to now is      453.3 secs

     total energy              =    -517.49244208 Ry
     estimated scf accuracy    <       0.00002401 Ry

     total magnetization       =     1.54 Bohr mag/cell
     absolute magnetization    =     1.57 Bohr mag/cell

     iteration # 21     ecut=   120.00 Ry     beta= 0.30
     Davidson diagonalization with overlap

---- Real-time Memory Report at c_bands before calling an iterative solver
           138 MiB given to the printing process from OS
             0 MiB allocation reported by mallinfo(arena+hblkhd)
         34187 MiB available memory on the node where the printing process lives
------------------
     c_bands:  2 eigenvalues not converged
     c_bands:  1 eigenvalues not converged
     c_bands:  1 eigenvalues not converged
     c_bands:  2 eigenvalues not converged
     c_bands:  2 eigenvalues not converged
     c_bands:  2 eigenvalues not converged
     c_bands:  4 eigenvalues not converged
     c_bands:  1 eigenvalues not converged
     c_bands:  2 eigenvalues not converged
     c_bands:  2 eigenvalues not converged
     c_bands:  4 eigenvalues not converged
     c_bands:  1 eigenvalues not converged
     c_bands:  2 eigenvalues not converged
     c_bands:  1 eigenvalues not converged
     c_bands:  1 eigenvalues not converged
     c_bands:  2 eigenvalues not converged
     c_bands:  4 eigenvalues not converged
     c_bands:  2 eigenvalues not converged
     c_bands:  1 eigenvalues not converged
     c_bands:  1 eigenvalues not converged
     c_bands:  2 eigenvalues not converged
     c_bands:  2 eigenvalues not converged
     c_bands:  4 eigenvalues not converged
     c_bands:  1 eigenvalues not converged
     c_bands:  1 eigenvalues not converged
     c_bands:  1 eigenvalues not converged
     c_bands:  3 eigenvalues not converged
     c_bands:  1 eigenvalues not converged
     c_bands:  1 eigenvalues not converged
     c_bands:  2 eigenvalues not converged
     c_bands:  2 eigenvalues not converged
     c_bands:  2 eigenvalues not converged
     c_bands:  4 eigenvalues not converged
     c_bands:  1 eigenvalues not converged
     c_bands:  2 eigenvalues not converged
     c_bands:  3 eigenvalues not converged
     c_bands:  2 eigenvalues not converged
     c_bands:  3 eigenvalues not converged
     c_bands:  2 eigenvalues not converged
     c_bands:  1 eigenvalues not converged
     c_bands:  1 eigenvalues not converged
     c_bands:  4 eigenvalues not converged
     c_bands:  2 eigenvalues not converged
     c_bands:  2 eigenvalues not converged
     c_bands:  1 eigenvalues not converged
     c_bands:  2 eigenvalues not converged
     c_bands:  4 eigenvalues not converged
     c_bands:  1 eigenvalues not converged
     c_bands:  1 eigenvalues not converged
     c_bands:  2 eigenvalues not converged
     ethr =  4.29E-08,  avg # of iterations = 17.9

     total cpu time spent up to now is      485.8 secs

     total energy              =    -517.49249042 Ry
     estimated scf accuracy    <       0.00021659 Ry

     total magnetization       =     1.45 Bohr mag/cell
     absolute magnetization    =     1.48 Bohr mag/cell

     iteration # 22     ecut=   120.00 Ry     beta= 0.30
     Davidson diagonalization with overlap

---- Real-time Memory Report at c_bands before calling an iterative solver
           138 MiB given to the printing process from OS
             0 MiB allocation reported by mallinfo(arena+hblkhd)
         34185 MiB available memory on the node where the printing process lives
------------------
     c_bands:  2 eigenvalues not converged
     c_bands:  2 eigenvalues not converged
     c_bands:  2 eigenvalues not converged
     c_bands:  2 eigenvalues not converged
     c_bands:  4 eigenvalues not converged
     c_bands:  1 eigenvalues not converged
     c_bands:  2 eigenvalues not converged
     c_bands:  2 eigenvalues not converged
     c_bands:  2 eigenvalues not converged
     c_bands:  1 eigenvalues not converged
     c_bands:  1 eigenvalues not converged
     c_bands:  1 eigenvalues not converged
     c_bands:  4 eigenvalues not converged
     c_bands:  2 eigenvalues not converged
     c_bands:  1 eigenvalues not converged
     c_bands:  2 eigenvalues not converged
     c_bands:  3 eigenvalues not converged
     c_bands:  2 eigenvalues not converged
     c_bands:  1 eigenvalues not converged
     c_bands:  1 eigenvalues not converged
     c_bands:  2 eigenvalues not converged
     c_bands:  4 eigenvalues not converged
     c_bands:  2 eigenvalues not converged
     c_bands:  4 eigenvalues not converged
     c_bands:  1 eigenvalues not converged
     c_bands:  1 eigenvalues not converged
     c_bands:  1 eigenvalues not converged
     c_bands:  4 eigenvalues not converged
     c_bands:  2 eigenvalues not converged
     c_bands:  2 eigenvalues not converged
     c_bands:  4 eigenvalues not converged
     ethr =  4.29E-08,  avg # of iterations = 11.0

     total cpu time spent up to now is      503.5 secs

     total energy              =    -517.49249078 Ry
     estimated scf accuracy    <       0.00021772 Ry

     total magnetization       =     1.46 Bohr mag/cell
     absolute magnetization    =     1.50 Bohr mag/cell

     iteration # 23     ecut=   120.00 Ry     beta= 0.30
     Davidson diagonalization with overlap

---- Real-time Memory Report at c_bands before calling an iterative solver
           138 MiB given to the printing process from OS
             0 MiB allocation reported by mallinfo(arena+hblkhd)
         34180 MiB available memory on the node where the printing process lives
------------------
     c_bands:  2 eigenvalues not converged
     c_bands:  2 eigenvalues not converged
     c_bands:  1 eigenvalues not converged
     c_bands:  2 eigenvalues not converged
     c_bands:  3 eigenvalues not converged
     c_bands:  4 eigenvalues not converged
     c_bands:  3 eigenvalues not converged
     c_bands:  1 eigenvalues not converged
     c_bands:  1 eigenvalues not converged
     c_bands:  2 eigenvalues not converged
     c_bands:  3 eigenvalues not converged
     c_bands:  2 eigenvalues not converged
     c_bands:  1 eigenvalues not converged
     c_bands:  2 eigenvalues not converged
     c_bands:  1 eigenvalues not converged
     c_bands:  2 eigenvalues not converged
     c_bands:  3 eigenvalues not converged
     c_bands:  4 eigenvalues not converged
     c_bands:  3 eigenvalues not converged
     c_bands:  4 eigenvalues not converged
     c_bands:  1 eigenvalues not converged
     c_bands:  1 eigenvalues not converged
     c_bands:  2 eigenvalues not converged
     c_bands:  2 eigenvalues not converged
     c_bands:  4 eigenvalues not converged
     c_bands:  1 eigenvalues not converged
     c_bands:  1 eigenvalues not converged
     c_bands:  3 eigenvalues not converged
     c_bands:  1 eigenvalues not converged
     c_bands:  1 eigenvalues not converged
     c_bands:  2 eigenvalues not converged
     c_bands:  2 eigenvalues not converged
     c_bands:  4 eigenvalues not converged
     c_bands:  4 eigenvalues not converged
     c_bands:  2 eigenvalues not converged
     c_bands:  1 eigenvalues not converged
     c_bands:  1 eigenvalues not converged
     c_bands:  1 eigenvalues not converged
     c_bands:  1 eigenvalues not converged
     c_bands:  4 eigenvalues not converged
     c_bands:  1 eigenvalues not converged
     c_bands:  4 eigenvalues not converged
     c_bands:  2 eigenvalues not converged
     c_bands:  1 eigenvalues not converged
     c_bands:  2 eigenvalues not converged
     c_bands:  4 eigenvalues not converged
     c_bands:  3 eigenvalues not converged
     c_bands:  2 eigenvalues not converged
     c_bands:  1 eigenvalues not converged
     ethr =  4.29E-08,  avg # of iterations = 18.1

     total cpu time spent up to now is      538.9 secs

     total energy              =    -517.49252516 Ry
     estimated scf accuracy    <       0.00147082 Ry

     total magnetization       =     1.36 Bohr mag/cell
     absolute magnetization    =     1.39 Bohr mag/cell

     iteration # 24     ecut=   120.00 Ry     beta= 0.30
     Davidson diagonalization with overlap

---- Real-time Memory Report at c_bands before calling an iterative solver
           138 MiB given to the printing process from OS
             0 MiB allocation reported by mallinfo(arena+hblkhd)
         34176 MiB available memory on the node where the printing process lives
------------------
     c_bands:  2 eigenvalues not converged
     c_bands:  2 eigenvalues not converged
     c_bands:  1 eigenvalues not converged
     c_bands:  3 eigenvalues not converged
     c_bands:  2 eigenvalues not converged
     c_bands:  2 eigenvalues not converged
     c_bands:  2 eigenvalues not converged
     c_bands:  2 eigenvalues not converged
     c_bands:  1 eigenvalues not converged
     c_bands:  1 eigenvalues not converged
     c_bands:  1 eigenvalues not converged
     c_bands:  4 eigenvalues not converged
     c_bands:  2 eigenvalues not converged
     c_bands:  2 eigenvalues not converged
     c_bands:  2 eigenvalues not converged
     c_bands:  3 eigenvalues not converged
     c_bands:  2 eigenvalues not converged
     c_bands:  1 eigenvalues not converged
     c_bands:  2 eigenvalues not converged
     c_bands:  2 eigenvalues not converged
     c_bands:  4 eigenvalues not converged
     c_bands:  1 eigenvalues not converged
     c_bands:  5 eigenvalues not converged
     c_bands:  2 eigenvalues not converged
     c_bands:  1 eigenvalues not converged
     c_bands:  4 eigenvalues not converged
     c_bands:  1 eigenvalues not converged
     c_bands:  2 eigenvalues not converged
     c_bands:  1 eigenvalues not converged
     c_bands:  1 eigenvalues not converged
     c_bands:  3 eigenvalues not converged
     c_bands:  1 eigenvalues not converged
     ethr =  4.29E-08,  avg # of iterations = 16.0

     total cpu time spent up to now is      566.5 secs

     total energy              =    -517.49255321 Ry
     estimated scf accuracy    <       0.00039185 Ry

     total magnetization       =     1.31 Bohr mag/cell
     absolute magnetization    =     1.34 Bohr mag/cell

     iteration # 25     ecut=   120.00 Ry     beta= 0.30
     Davidson diagonalization with overlap

---- Real-time Memory Report at c_bands before calling an iterative solver
           138 MiB given to the printing process from OS
             0 MiB allocation reported by mallinfo(arena+hblkhd)
         34181 MiB available memory on the node where the printing process lives
------------------
     c_bands:  2 eigenvalues not converged
     c_bands:  2 eigenvalues not converged
     c_bands:  3 eigenvalues not converged
     c_bands:  1 eigenvalues not converged
     c_bands:  2 eigenvalues not converged
     c_bands:  1 eigenvalues not converged
     c_bands:  2 eigenvalues not converged
     c_bands:  3 eigenvalues not converged
     c_bands:  1 eigenvalues not converged
     c_bands:  1 eigenvalues not converged
     c_bands:  2 eigenvalues not converged
     c_bands:  4 eigenvalues not converged
     c_bands:  5 eigenvalues not converged
     c_bands:  1 eigenvalues not converged
     c_bands:  4 eigenvalues not converged
     c_bands:  2 eigenvalues not converged
     c_bands:  3 eigenvalues not converged
     ethr =  4.29E-08,  avg # of iterations =  8.3

     total cpu time spent up to now is      582.7 secs

     total energy              =    -517.49249178 Ry
     estimated scf accuracy    <       0.00026785 Ry

     total magnetization       =     1.29 Bohr mag/cell
     absolute magnetization    =     1.32 Bohr mag/cell

     iteration # 26     ecut=   120.00 Ry     beta= 0.30
     Davidson diagonalization with overlap

---- Real-time Memory Report at c_bands before calling an iterative solver
           138 MiB given to the printing process from OS
             0 MiB allocation reported by mallinfo(arena+hblkhd)
         34174 MiB available memory on the node where the printing process lives
------------------
     c_bands:  1 eigenvalues not converged
     c_bands:  2 eigenvalues not converged
     c_bands:  2 eigenvalues not converged
     c_bands:  1 eigenvalues not converged
     c_bands:  2 eigenvalues not converged
     c_bands:  2 eigenvalues not converged
     c_bands:  2 eigenvalues not converged
     c_bands:  2 eigenvalues not converged
     c_bands:  1 eigenvalues not converged
     c_bands:  2 eigenvalues not converged
     c_bands:  3 eigenvalues not converged
     c_bands:  2 eigenvalues not converged
     c_bands:  1 eigenvalues not converged
     c_bands:  4 eigenvalues not converged
     c_bands:  3 eigenvalues not converged
     c_bands:  4 eigenvalues not converged
     c_bands:  1 eigenvalues not converged
     c_bands:  1 eigenvalues not converged
     c_bands:  2 eigenvalues not converged
     c_bands:  2 eigenvalues not converged
     c_bands:  2 eigenvalues not converged
     c_bands:  2 eigenvalues not converged
     c_bands:  2 eigenvalues not converged
     c_bands:  2 eigenvalues not converged
     c_bands:  1 eigenvalues not converged
     c_bands:  2 eigenvalues not converged
     c_bands:  2 eigenvalues not converged
     c_bands:  3 eigenvalues not converged
     c_bands:  1 eigenvalues not converged
     c_bands:  1 eigenvalues not converged
     c_bands:  4 eigenvalues not converged
     c_bands:  1 eigenvalues not converged
     c_bands:  2 eigenvalues not converged
     c_bands:  2 eigenvalues not converged
     c_bands:  2 eigenvalues not converged
     c_bands:  3 eigenvalues not converged
     c_bands:  3 eigenvalues not converged
     c_bands:  1 eigenvalues not converged
     c_bands:  3 eigenvalues not converged
     c_bands:  2 eigenvalues not converged
     c_bands:  3 eigenvalues not converged
     c_bands:  2 eigenvalues not converged
     c_bands:  2 eigenvalues not converged
     c_bands:  1 eigenvalues not converged
     c_bands:  4 eigenvalues not converged
     c_bands:  2 eigenvalues not converged
     c_bands:  2 eigenvalues not converged
     ethr =  4.29E-08,  avg # of iterations = 18.1

     total cpu time spent up to now is      618.5 secs

     total energy              =    -517.49260383 Ry
     estimated scf accuracy    <       0.00022468 Ry

     total magnetization       =     1.14 Bohr mag/cell
     absolute magnetization    =     1.17 Bohr mag/cell

     iteration # 27     ecut=   120.00 Ry     beta= 0.30
     Davidson diagonalization with overlap

---- Real-time Memory Report at c_bands before calling an iterative solver
           138 MiB given to the printing process from OS
             0 MiB allocation reported by mallinfo(arena+hblkhd)
         34169 MiB available memory on the node where the printing process lives
------------------
     c_bands:  2 eigenvalues not converged
     c_bands:  1 eigenvalues not converged
     c_bands:  3 eigenvalues not converged
     c_bands:  1 eigenvalues not converged
     c_bands:  2 eigenvalues not converged
     c_bands:  1 eigenvalues not converged
     c_bands:  1 eigenvalues not converged
     c_bands:  2 eigenvalues not converged
     c_bands:  1 eigenvalues not converged
     c_bands:  3 eigenvalues not converged
     c_bands:  2 eigenvalues not converged
     c_bands:  2 eigenvalues not converged
     c_bands:  3 eigenvalues not converged
     c_bands:  1 eigenvalues not converged
     c_bands:  2 eigenvalues not converged
     c_bands:  3 eigenvalues not converged
     c_bands:  4 eigenvalues not converged
     c_bands:  1 eigenvalues not converged
     c_bands:  4 eigenvalues not converged
     c_bands:  1 eigenvalues not converged
     c_bands:  1 eigenvalues not converged
     c_bands:  4 eigenvalues not converged
     c_bands:  1 eigenvalues not converged
     ethr =  4.29E-08,  avg # of iterations = 12.3

     total cpu time spent up to now is      638.8 secs

     total energy              =    -517.49260851 Ry
     estimated scf accuracy    <       0.00003762 Ry

     total magnetization       =     1.12 Bohr mag/cell
     absolute magnetization    =     1.14 Bohr mag/cell

     iteration # 28     ecut=   120.00 Ry     beta= 0.30
     Davidson diagonalization with overlap

---- Real-time Memory Report at c_bands before calling an iterative solver
           138 MiB given to the printing process from OS
             0 MiB allocation reported by mallinfo(arena+hblkhd)
         34181 MiB available memory on the node where the printing process lives
------------------
     c_bands:  2 eigenvalues not converged
     c_bands:  3 eigenvalues not converged
     c_bands:  1 eigenvalues not converged
     c_bands:  2 eigenvalues not converged
     c_bands:  3 eigenvalues not converged
     c_bands:  1 eigenvalues not converged
     c_bands:  2 eigenvalues not converged
     c_bands:  2 eigenvalues not converged
     c_bands:  1 eigenvalues not converged
     c_bands:  3 eigenvalues not converged
     c_bands:  3 eigenvalues not converged
     c_bands:  1 eigenvalues not converged
     c_bands:  4 eigenvalues not converged
     c_bands:  1 eigenvalues not converged
     c_bands:  4 eigenvalues not converged
     ethr =  4.29E-08,  avg # of iterations =  6.6

     total cpu time spent up to now is      653.7 secs

     total energy              =    -517.49254468 Ry
     estimated scf accuracy    <       0.00008242 Ry

     total magnetization       =     1.14 Bohr mag/cell
     absolute magnetization    =     1.17 Bohr mag/cell

     iteration # 29     ecut=   120.00 Ry     beta= 0.30
     Davidson diagonalization with overlap

---- Real-time Memory Report at c_bands before calling an iterative solver
           138 MiB given to the printing process from OS
             0 MiB allocation reported by mallinfo(arena+hblkhd)
         34187 MiB available memory on the node where the printing process lives
------------------
     c_bands:  2 eigenvalues not converged
     c_bands:  2 eigenvalues not converged
     c_bands:  1 eigenvalues not converged
     c_bands:  4 eigenvalues not converged
     c_bands:  1 eigenvalues not converged
     c_bands:  2 eigenvalues not converged
     c_bands:  3 eigenvalues not converged
     c_bands:  2 eigenvalues not converged
     c_bands:  2 eigenvalues not converged
     c_bands:  3 eigenvalues not converged
     c_bands:  1 eigenvalues not converged
     c_bands:  4 eigenvalues not converged
     c_bands:  3 eigenvalues not converged
     c_bands:  2 eigenvalues not converged
     c_bands:  1 eigenvalues not converged
     c_bands:  2 eigenvalues not converged
     c_bands:  3 eigenvalues not converged
     c_bands:  3 eigenvalues not converged
     c_bands:  2 eigenvalues not converged
     c_bands:  3 eigenvalues not converged
     c_bands:  1 eigenvalues not converged
     c_bands:  3 eigenvalues not converged
     c_bands:  2 eigenvalues not converged
     c_bands:  1 eigenvalues not converged
     c_bands:  1 eigenvalues not converged
     c_bands:  1 eigenvalues not converged
     c_bands:  1 eigenvalues not converged
     c_bands:  4 eigenvalues not converged
     c_bands:  1 eigenvalues not converged
     ethr =  4.29E-08,  avg # of iterations = 15.1

     total cpu time spent up to now is      683.6 secs

     total energy              =    -517.49258019 Ry
     estimated scf accuracy    <       0.00006335 Ry

     total magnetization       =     0.99 Bohr mag/cell
     absolute magnetization    =     1.01 Bohr mag/cell

     iteration # 30     ecut=   120.00 Ry     beta= 0.30
     Davidson diagonalization with overlap

---- Real-time Memory Report at c_bands before calling an iterative solver
           138 MiB given to the printing process from OS
             0 MiB allocation reported by mallinfo(arena+hblkhd)
         34191 MiB available memory on the node where the printing process lives
------------------
     c_bands:  2 eigenvalues not converged
     c_bands:  4 eigenvalues not converged
     c_bands:  3 eigenvalues not converged
     c_bands:  2 eigenvalues not converged
     c_bands:  4 eigenvalues not converged
     c_bands:  3 eigenvalues not converged
     c_bands:  2 eigenvalues not converged
     c_bands:  1 eigenvalues not converged
     c_bands:  1 eigenvalues not converged
     c_bands:  3 eigenvalues not converged
     c_bands:  3 eigenvalues not converged
     c_bands:  4 eigenvalues not converged
     c_bands:  1 eigenvalues not converged
     c_bands:  1 eigenvalues not converged
     c_bands:  1 eigenvalues not converged
     c_bands:  2 eigenvalues not converged
     c_bands:  3 eigenvalues not converged
     c_bands:  3 eigenvalues not converged
     c_bands:  2 eigenvalues not converged
     c_bands:  1 eigenvalues not converged
     c_bands:  3 eigenvalues not converged
     c_bands:  3 eigenvalues not converged
     c_bands:  4 eigenvalues not converged
     c_bands:  1 eigenvalues not converged
     c_bands:  2 eigenvalues not converged
     c_bands:  1 eigenvalues not converged
     c_bands:  2 eigenvalues not converged
     c_bands:  4 eigenvalues not converged
     c_bands:  1 eigenvalues not converged
     c_bands:  3 eigenvalues not converged
     c_bands:  1 eigenvalues not converged
     c_bands:  1 eigenvalues not converged
     c_bands:  1 eigenvalues not converged
     c_bands:  3 eigenvalues not converged
     c_bands:  2 eigenvalues not converged
     c_bands:  3 eigenvalues not converged
     ethr =  4.29E-08,  avg # of iterations = 15.9

     total cpu time spent up to now is      714.4 secs

     total energy              =    -517.49269335 Ry
     estimated scf accuracy    <       0.00013145 Ry

     total magnetization       =     0.83 Bohr mag/cell
     absolute magnetization    =     0.85 Bohr mag/cell

     iteration # 31     ecut=   120.00 Ry     beta= 0.30
     Davidson diagonalization with overlap

---- Real-time Memory Report at c_bands before calling an iterative solver
           138 MiB given to the printing process from OS
             0 MiB allocation reported by mallinfo(arena+hblkhd)
         34190 MiB available memory on the node where the printing process lives
------------------
     c_bands:  2 eigenvalues not converged
     c_bands:  4 eigenvalues not converged
     c_bands:  1 eigenvalues not converged
     c_bands:  2 eigenvalues not converged
     c_bands:  2 eigenvalues not converged
     c_bands:  2 eigenvalues not converged
     c_bands:  4 eigenvalues not converged
     c_bands:  2 eigenvalues not converged
     c_bands:  1 eigenvalues not converged
     c_bands:  1 eigenvalues not converged
     c_bands:  2 eigenvalues not converged
     c_bands:  3 eigenvalues not converged
     c_bands:  2 eigenvalues not converged
     c_bands:  2 eigenvalues not converged
     ethr =  4.29E-08,  avg # of iterations =  6.9

     total cpu time spent up to now is      729.5 secs

     total energy              =    -517.49269069 Ry
     estimated scf accuracy    <       0.00024947 Ry

     total magnetization       =     0.86 Bohr mag/cell
     absolute magnetization    =     0.88 Bohr mag/cell

     iteration # 32     ecut=   120.00 Ry     beta= 0.30
     Davidson diagonalization with overlap

---- Real-time Memory Report at c_bands before calling an iterative solver
           138 MiB given to the printing process from OS
             0 MiB allocation reported by mallinfo(arena+hblkhd)
         34195 MiB available memory on the node where the printing process lives
------------------
     c_bands:  2 eigenvalues not converged
     c_bands:  4 eigenvalues not converged
     c_bands:  2 eigenvalues not converged
     c_bands:  2 eigenvalues not converged
     c_bands:  2 eigenvalues not converged
     c_bands:  2 eigenvalues not converged
     c_bands:  1 eigenvalues not converged
     c_bands:  1 eigenvalues not converged
     c_bands:  3 eigenvalues not converged
     c_bands:  3 eigenvalues not converged
     c_bands:  1 eigenvalues not converged
     c_bands:  2 eigenvalues not converged
     ethr =  4.29E-08,  avg # of iterations =  4.8

     total cpu time spent up to now is      743.3 secs

     total energy              =    -517.49268758 Ry
     estimated scf accuracy    <       0.00014973 Ry

     total magnetization       =     0.85 Bohr mag/cell
     absolute magnetization    =     0.87 Bohr mag/cell

     iteration # 33     ecut=   120.00 Ry     beta= 0.30
     Davidson diagonalization with overlap

---- Real-time Memory Report at c_bands before calling an iterative solver
           138 MiB given to the printing process from OS
             0 MiB allocation reported by mallinfo(arena+hblkhd)
         34183 MiB available memory on the node where the printing process lives
------------------
     c_bands:  2 eigenvalues not converged
     c_bands:  3 eigenvalues not converged
     c_bands:  2 eigenvalues not converged
     c_bands:  2 eigenvalues not converged
     c_bands:  1 eigenvalues not converged
     c_bands:  2 eigenvalues not converged
     c_bands:  1 eigenvalues not converged
     c_bands:  3 eigenvalues not converged
     c_bands:  3 eigenvalues not converged
     c_bands:  1 eigenvalues not converged
     c_bands:  4 eigenvalues not converged
     ethr =  4.29E-08,  avg # of iterations = 11.0

     total cpu time spent up to now is      762.0 secs

     total energy              =    -517.49269005 Ry
     estimated scf accuracy    <       0.00001600 Ry

     total magnetization       =     0.84 Bohr mag/cell
     absolute magnetization    =     0.86 Bohr mag/cell

     iteration # 34     ecut=   120.00 Ry     beta= 0.30
     Davidson diagonalization with overlap

---- Real-time Memory Report at c_bands before calling an iterative solver
           138 MiB given to the printing process from OS
             0 MiB allocation reported by mallinfo(arena+hblkhd)
         34188 MiB available memory on the node where the printing process lives
------------------
     c_bands:  2 eigenvalues not converged
     c_bands:  3 eigenvalues not converged
     c_bands:  2 eigenvalues not converged
     c_bands:  2 eigenvalues not converged
     c_bands:  3 eigenvalues not converged
     c_bands:  2 eigenvalues not converged
     c_bands:  2 eigenvalues not converged
     c_bands:  1 eigenvalues not converged
     c_bands:  1 eigenvalues not converged
     c_bands:  1 eigenvalues not converged
     c_bands:  3 eigenvalues not converged
     c_bands:  1 eigenvalues not converged
     c_bands:  1 eigenvalues not converged
     c_bands:  4 eigenvalues not converged
     ethr =  2.86E-08,  avg # of iterations = 10.2

     total cpu time spent up to now is      779.7 secs

     total energy              =    -517.49269637 Ry
     estimated scf accuracy    <       0.00001615 Ry

     total magnetization       =     0.85 Bohr mag/cell
     absolute magnetization    =     0.87 Bohr mag/cell

     iteration # 35     ecut=   120.00 Ry     beta= 0.30
     Davidson diagonalization with overlap

---- Real-time Memory Report at c_bands before calling an iterative solver
           138 MiB given to the printing process from OS
             0 MiB allocation reported by mallinfo(arena+hblkhd)
         34190 MiB available memory on the node where the printing process lives
------------------
     c_bands:  2 eigenvalues not converged
     c_bands:  2 eigenvalues not converged
     c_bands:  2 eigenvalues not converged
     c_bands:  2 eigenvalues not converged
     c_bands:  3 eigenvalues not converged
     c_bands:  2 eigenvalues not converged
     c_bands:  2 eigenvalues not converged
     c_bands:  1 eigenvalues not converged
     c_bands:  1 eigenvalues not converged
     c_bands:  3 eigenvalues not converged
     c_bands:  1 eigenvalues not converged
[...]
    22.5911  22.8843  22.9657  23.1151  23.3764  23.3878  23.6038  23.6250

     occupation numbers 
     1.0000   1.0000   1.0000   1.0000   1.0000   1.0000   1.0000   1.0000
     1.0000   1.0000   1.0000   1.0000   1.0000   1.0000   1.0000   1.0000
     1.0000   1.0000   1.0000   1.0000   1.0014   1.0501   1.0679   1.0686
     1.0649   0.9140   0.8435   0.6914   0.4082   0.3967   0.2105   0.1959

          k = 0.3333 0.1675 0.3350 ( 13022 PWs)   bands (ev):

   -20.4407 -20.2094 -20.1537 -19.6130   2.4164   2.5441   2.6190   3.4020
     4.0333   4.5821   4.8091   5.3301   5.4431   5.5134   5.8547   6.2815
    20.3267  20.4658  20.7472  20.7706  22.0565  22.0852  22.2844  22.5743
    22.6003  22.6822  22.9720  23.0922  23.3115  23.4686  23.4787  23.5625

     occupation numbers 
     1.0000   1.0000   1.0000   1.0000   1.0000   1.0000   1.0000   1.0000
     1.0000   1.0000   1.0000   1.0000   1.0000   1.0000   1.0000   1.0000
     1.0000   1.0000   1.0000   1.0000   1.0456   1.0495   1.0753   1.0686
     1.0627   1.0359   0.8376   0.7161   0.4758   0.3196   0.3105   0.2409

          k = 0.3333 0.1675-0.5025 ( 13020 PWs)   bands (ev):

   -20.3528 -20.2703 -20.1684 -19.6254   2.3696   2.4649   2.8322   2.8440
     4.2392   4.4372   5.2043   5.3968   5.5043   5.5530   5.9498   6.0227
    20.8341  20.9056  21.0592  21.0709  21.8547  21.8724  21.9045  21.9178
    22.7389  22.8509  23.0341  23.1351  23.3130  23.4563  23.5513  23.6265

     occupation numbers 
     1.0000   1.0000   1.0000   1.0000   1.0000   1.0000   1.0000   1.0000
     1.0000   1.0000   1.0000   1.0000   1.0000   1.0000   1.0000   1.0000
     1.0000   1.0001   1.0002   1.0002   1.0225   1.0241   1.0273   1.0287
     1.0098   0.9396   0.7769   0.6696   0.4743   0.3307   0.2496   0.1949

          k = 0.3333 0.3350 0.3350 ( 13015 PWs)   bands (ev):

   -20.3756 -20.2082 -20.2011 -19.6258   2.0774   2.2137   2.2177   2.7242
     4.9112   4.9292   5.2601   5.4871   5.6090   5.6318   6.1204   6.1454
    19.9186  20.6143  20.6200  20.6275  21.8453  21.8495  21.8518  22.3146
    22.9996  23.0464  23.0554  23.3603  23.3624  23.5454  23.5541  23.5695

     occupation numbers 
     1.0000   1.0000   1.0000   1.0000   1.0000   1.0000   1.0000   1.0000
     1.0000   1.0000   1.0000   1.0000   1.0000   1.0000   1.0000   1.0000
     1.0000   1.0000   1.0000   1.0000   1.0216   1.0220   1.0222   1.0782
     0.8113   0.7642   0.7549   0.4246   0.4224   0.2543   0.2475   0.2356

          k = 0.3333 0.3350-0.5025 ( 13022 PWs)   bands (ev):

   -20.3117 -20.2590 -20.2050 -19.6320   1.9568   2.0584   2.2616   2.2864
     5.0113   5.2192   5.6226   5.6338   5.7082   5.8324   5.9649   6.0150
    20.1508  20.2071  20.7895  20.8035  21.4666  21.4948  21.9567  21.9610
    23.1376  23.1683  23.1751  23.2886  23.3825  23.4764  23.5800  23.6443

     occupation numbers 
     1.0000   1.0000   1.0000   1.0000   1.0000   1.0000   1.0000   1.0000
     1.0000   1.0000   1.0000   1.0000   1.0000   1.0000   1.0000   1.0000
     1.0000   1.0000   1.0000   1.0000   1.0032   1.0038   1.0331   1.0336
     0.6669   0.6331   0.6256   0.5006   0.4020   0.3125   0.2277   0.1832

          k = 0.3333-0.5025-0.5025 ( 12976 PWs)   bands (ev):

   -20.2611 -20.2532 -20.2532 -19.6354   1.8482   1.9848   1.9990   1.9990
     5.4583   5.5130   5.5130   5.8081   5.8136   5.8239   6.0984   6.0984
    20.1311  20.1311  20.1379  20.2178  21.7968  21.8450  21.8473  21.8473
    23.2151  23.2222  23.2933  23.2933  23.2945  23.5787  23.5787  23.6672

     occupation numbers 
     1.0000   1.0000   1.0000   1.0000   1.0000   1.0000   1.0000   1.0000
     1.0000   1.0000   1.0000   1.0000   1.0000   1.0000   1.0000   1.0000
     1.0000   1.0000   1.0000   1.0000   1.0176   1.0216   1.0218   1.0218
     0.5813   0.5734   0.4955   0.4955   0.4941   0.2287   0.2287   0.1689

          k =-0.5000 0.0000 0.0000 ( 13038 PWs)   bands (ev):

   -20.4754 -20.3351 -20.0395 -19.5704   3.1389   3.1389   3.3426   3.3426
     3.8498   3.9772   4.4502   4.7439   5.4876   5.4876   5.7421   5.7421
    20.6012  20.6889  20.7806  20.8500  21.3672  21.3818  22.5177  22.5338
    22.5338  22.6697  22.6697  22.6768  23.3947  23.4876  23.7488  23.7488

     occupation numbers 
     1.0000   1.0000   1.0000   1.0000   1.0000   1.0000   1.0000   1.0000
     1.0000   1.0000   1.0000   1.0000   1.0000   1.0000   1.0000   1.0000
     1.0000   1.0000   1.0000   1.0000   1.0017   1.0019   1.0779   1.0758
     1.0758   1.0408   1.0408   1.0380   0.3898   0.3026   0.1243   0.1243

          k =-0.5000 0.0000 0.1675 ( 13018 PWs)   bands (ev):

   -20.4464 -20.3190 -20.0688 -19.5867   2.9750   3.1047   3.2675   3.4682
     3.6347   3.7404   4.8327   4.9909   5.2905   5.5475   5.7123   5.8811
    20.9396  21.0184  21.0628  21.1235  21.1741  21.2021  22.4809  22.5844
    22.6151  22.7026  22.8111  22.8119  22.9894  23.1825  23.7356  23.8326

     occupation numbers 
     1.0000   1.0000   1.0000   1.0000   1.0000   1.0000   1.0000   1.0000
     1.0000   1.0000   1.0000   1.0000   1.0000   1.0000   1.0000   1.0000
     1.0001   1.0001   1.0002   1.0003   1.0005   1.0006   1.0813   1.0664
     1.0587   1.0272   0.9674   0.9669   0.8212   0.6174   0.1309   0.0882

          k =-0.5000 0.0000 0.3350 ( 13038 PWs)   bands (ev):

   -20.3668 -20.2845 -20.1488 -19.6215   2.8020   2.8608   3.2374   3.2804
     3.6349   3.8187   4.7906   5.0634   5.4457   5.4981   5.9841   6.0498
    20.9042  20.9192  21.7604  21.8085  21.8191  21.8413  22.0466  22.1661
    22.6159  22.6940  22.7116  22.7635  23.4347  23.4527  23.5156  23.5212

     occupation numbers 
     1.0000   1.0000   1.0000   1.0000   1.0000   1.0000   1.0000   1.0000
     1.0000   1.0000   1.0000   1.0000   1.0000   1.0000   1.0000   1.0000
     1.0001   1.0001   1.0150   1.0185   1.0194   1.0213   1.0443   1.0607
     1.0585   1.0310   1.0232   0.9965   0.3510   0.3340   0.2786   0.2739

          k =-0.5000 0.0000-0.5025 ( 13028 PWs)   bands (ev):

   -20.2657 -20.2579 -20.2578 -19.6404   2.8038   2.8208   3.0184   3.0192
     4.1738   4.1819   4.1875   4.6355   5.7756   5.7858   6.0401   6.0417
    21.1576  21.1586  21.1910  21.2003  22.5124  22.5258  22.5304  22.5888
    22.6127  22.6289  22.7435  22.7494  23.1720  23.2372  23.2465  23.5528

     occupation numbers 
     1.0000   1.0000   1.0000   1.0000   1.0000   1.0000   1.0000   1.0000
     1.0000   1.0000   1.0000   1.0000   1.0000   1.0000   1.0000   1.0000
     1.0004   1.0004   1.0005   1.0006   1.0785   1.0769   1.0762   1.0654
     1.0594   1.0547   1.0074   1.0043   0.6291   0.5568   0.5466   0.2484

          k =-0.5000 0.1675 0.1675 ( 13040 PWs)   bands (ev):

   -20.4208 -20.3061 -20.0938 -19.5989   2.6136   2.7373   3.3182   3.3993
     3.7088   3.9377   5.0247   5.1368   5.5686   5.6142   5.6807   5.8328
    20.6727  20.7556  21.0882  21.1149  21.8383  21.8651  22.0807  22.1363
    22.5277  22.5801  22.8960  22.9751  23.1272  23.3062  23.7572  23.7844

     occupation numbers 
     1.0000   1.0000   1.0000   1.0000   1.0000   1.0000   1.0000   1.0000
     1.0000   1.0000   1.0000   1.0000   1.0000   1.0000   1.0000   1.0000
     1.0000   1.0000   1.0002   1.0003   1.0210   1.0234   1.0489   1.0566
     1.0766   1.0674   0.9046   0.8347   0.6783   0.4815   0.1202   0.1078

          k =-0.5000 0.1675 0.3350 ( 13010 PWs)   bands (ev):

   -20.3511 -20.2787 -20.1622 -19.6249   2.3666   2.4615   2.8374   2.8487
     4.2375   4.4284   5.2110   5.4005   5.5015   5.5562   5.9514   6.0275
    20.8434  20.9118  21.0449  21.0566  21.8356  21.8545  21.8935  21.9056
    22.7574  22.8589  23.0238  23.1234  23.3096  23.4529  23.5527  23.6367

     occupation numbers 
     1.0000   1.0000   1.0000   1.0000   1.0000   1.0000   1.0000   1.0000
     1.0000   1.0000   1.0000   1.0000   1.0000   1.0000   1.0000   1.0000
     1.0000   1.0001   1.0002   1.0002   1.0208   1.0225   1.0262   1.0274
     0.9999   0.9336   0.7872   0.6824   0.4779   0.3339   0.2485   0.1882

          k =-0.5000 0.1675-0.5025 ( 12996 PWs)   bands (ev):

   -20.2642 -20.2564 -20.2563 -19.6387   2.3696   2.4635   2.5401   2.5402
     4.7229   4.7713   4.7781   5.1082   5.7785   5.7888   6.0479   6.0482
    21.0354  21.0383  21.0955  21.1174  21.6468  21.7111  21.7199  21.7206
    23.1000  23.1539  23.1915  23.2098  23.2245  23.3440  23.3478  23.6469

     occupation numbers 
     1.0000   1.0000   1.0000   1.0000   1.0000   1.0000   1.0000   1.0000
     1.0000   1.0000   1.0000   1.0000   1.0000   1.0000   1.0000   1.0000
     1.0002   1.0002   1.0003   1.0003   1.0087   1.0119   1.0124   1.0125
     0.7077   0.6490   0.6075   0.5871   0.5709   0.4416   0.4376   0.1816

          k =-0.5000 0.3350 0.3350 ( 13014 PWs)   bands (ev):

   -20.3090 -20.2671 -20.1999 -19.6318   1.9567   2.0579   2.2668   2.2921
     5.0273   5.2270   5.6084   5.6114   5.7354   5.8117   5.9464   6.0316
    20.1562  20.2094  20.7790  20.7910  21.4591  21.4875  21.9473  21.9523
    23.1478  23.1643  23.1710  23.2860  23.3801  23.4828  23.5828  23.6444

     occupation numbers 
     1.0000   1.0000   1.0000   1.0000   1.0000   1.0000   1.0000   1.0000
     1.0000   1.0000   1.0000   1.0000   1.0000   1.0000   1.0000   1.0000
     1.0000   1.0000   1.0000   1.0000   1.0031   1.0036   1.0320   1.0326
     0.6557   0.6376   0.6301   0.5034   0.4044   0.3069   0.2256   0.1831

          k =-0.5000 0.3350-0.5025 ( 12996 PWs)   bands (ev):

   -20.2612 -20.2533 -20.2533 -19.6354   1.8512   1.9879   2.0021   2.0021
     5.4833   5.5249   5.5412   5.7848   5.7906   5.8313   6.0726   6.0826
    20.1277  20.1307  20.1401  20.2175  21.7920  21.8410  21.8424  21.8428
    23.2162  23.2212  23.2886  23.2939  23.2968  23.5830  23.5833  23.6555

     occupation numbers 
     1.0000   1.0000   1.0000   1.0000   1.0000   1.0000   1.0000   1.0000
     1.0000   1.0000   1.0000   1.0000   1.0000   1.0000   1.0000   1.0000
     1.0000   1.0000   1.0000   1.0000   1.0173   1.0213   1.0214   1.0214
     0.5800   0.5745   0.5005   0.4948   0.4917   0.2255   0.2253   0.1761

          k =-0.5000-0.5025-0.5025 ( 12984 PWs)   bands (ev):

   -20.2597 -20.2518 -20.2518 -19.6338   1.6572   1.8038   1.8038   1.8038
     5.7772   5.7968   5.7968   5.8162   5.8266   6.1176   6.1411   6.1411
    19.6896  19.6923  19.6923  19.7801  21.9818  22.0382  22.0388  22.0388
    23.2319  23.2325  23.3095  23.3095  23.3103  23.6602  23.6602  23.6689

     occupation numbers 
     1.0000   1.0000   1.0000   1.0000   1.0000   1.0000   1.0000   1.0000
     1.0000   1.0000   1.0000   1.0000   1.0000   1.0000   1.0000   1.0000
     1.0000   1.0000   1.0000   1.0000   1.0360   1.0432   1.0433   1.0433
     0.5627   0.5620   0.4780   0.4780   0.4771   0.1732   0.1732   0.1679

     the Fermi energy is    23.3839 ev

!    total energy              =    -517.49518793 Ry
     estimated scf accuracy    <          5.8E-09 Ry
     smearing contrib. (-TS)   =      -0.04230039 Ry
     internal energy E=F+TS    =    -517.45288754 Ry

     The total energy is F=E-TS. E is the sum of the following terms:
     one-electron contribution =      41.24139802 Ry
     hartree contribution      =      37.37651336 Ry
     xc contribution           =    -166.67061382 Ry
     ewald contribution        =    -429.40018511 Ry

     total magnetization       =    -1.05 Bohr mag/cell
     absolute magnetization    =     3.46 Bohr mag/cell

     convergence has been achieved in 155 iterations

     Forces acting on atoms (cartesian axes, Ry/au):

     atom    1 type  1   force =     0.00000000    0.00000000    0.00000000
     atom    2 type  1   force =     0.00000000    0.00000000    0.00000000
     atom    3 type  1   force =     0.00000000    0.00000000    0.00000000
     atom    4 type  1   force =     0.00000000    0.00000000    0.00000000
     The non-local contrib.  to forces
     atom    1 type  1   force =     0.00000000    0.00000000    0.00000000
     atom    2 type  1   force =     0.00000000    0.00000000    0.00000000
     atom    3 type  1   force =     0.00000000    0.00000000    0.00000000
     atom    4 type  1   force =     0.00000000    0.00000000    0.00000000
     The ionic contribution  to forces
     atom    1 type  1   force =    -0.00000000   -0.00000000   -0.00000000
     atom    2 type  1   force =     0.00000000    0.00000000   -0.00000000
     atom    3 type  1   force =     0.00000000   -0.00000000    0.00000000
     atom    4 type  1   force =    -0.00000000    0.00000000    0.00000000
     The local contribution  to forces
     atom    1 type  1   force =     0.00000000    0.00000000   -0.00000000
     atom    2 type  1   force =     0.00000000    0.00000000   -0.00000000
     atom    3 type  1   force =     0.00000000    0.00000000    0.00000000
     atom    4 type  1   force =     0.00000000    0.00000000    0.00000000
     The core correction contribution to forces
     atom    1 type  1   force =    -0.00000000   -0.00000000    0.00000000
     atom    2 type  1   force =    -0.00000000   -0.00000000    0.00000000
     atom    3 type  1   force =    -0.00000000   -0.00000000   -0.00000000
     atom    4 type  1   force =     0.00000000   -0.00000000   -0.00000000
     The Hubbard contrib.    to forces
     atom    1 type  1   force =     0.00000000    0.00000000    0.00000000
     atom    2 type  1   force =     0.00000000    0.00000000    0.00000000
     atom    3 type  1   force =     0.00000000    0.00000000    0.00000000
     atom    4 type  1   force =     0.00000000    0.00000000    0.00000000
     The SCF correction term to forces
     atom    1 type  1   force =     0.00000000    0.00000000    0.00000000
     atom    2 type  1   force =    -0.00000000    0.00000000    0.00000000
     atom    3 type  1   force =     0.00000000    0.00000000    0.00000000
     atom    4 type  1   force =     0.00000000    0.00000000    0.00000000

     Total force =     0.000000     Total SCF correction =     0.000000


     Computing stress (Cartesian axis) and pressure

          total   stress  (Ry/bohr**3)                   (kbar)     P=        4.25
   0.00004429   0.00000000   0.00000000            6.52        0.00        0.00
   0.00000000   0.00002115   0.00000000            0.00        3.11        0.00
   0.00000000   0.00000000   0.00002115            0.00        0.00        3.11

     kinetic stress (kbar)  31427.24      0.00      0.00
                                0.00  31407.90      0.00
                                0.00      0.00  31407.90

     local   stress (kbar)   8505.11     -0.00     -0.00
                               -0.00   8487.05     -0.00
                               -0.00     -0.00   8487.05

     nonloc. stress (kbar)   -589.99      0.00      0.00
                                0.00   -583.64      0.00
                                0.00      0.00   -583.64

     hartree stress (kbar)   3123.30     -0.00      0.00
                               -0.00   3124.94      0.00
                                0.00      0.00   3124.94

     exc-cor stress (kbar)  21096.50     -0.00      0.00
                               -0.00  21096.49     -0.00
                                0.00     -0.00  21096.49

     corecor stress (kbar) -27643.79      0.00     -0.00
                                0.00 -27643.69      0.00
                               -0.00      0.00 -27643.69

     ewald   stress (kbar) -35911.86     -0.00     -0.00
                               -0.00 -35885.93     -0.00
                               -0.00     -0.00 -35885.93

     hubbard stress (kbar)      0.00      0.00      0.00
                                0.00      0.00      0.00
                                0.00      0.00      0.00

     DFT-D   stress (kbar)      0.00      0.00      0.00
                                0.00      0.00      0.00
                                0.00      0.00      0.00

     XDM     stress (kbar)      0.00      0.00      0.00
                                0.00      0.00      0.00
                                0.00      0.00      0.00

     dft-nl  stress (kbar)      0.00      0.00      0.00
                                0.00      0.00      0.00
                                0.00      0.00      0.00

     TS-vdW  stress (kbar)      0.00      0.00      0.00
                                0.00      0.00      0.00
                                0.00      0.00      0.00


                                0.00      0.00      0.00
                                0.00      0.00      0.00


                                0.00      0.00      0.00


     Writing output data file ./Uranium.save/

     init_run     :      5.54s CPU      5.70s WALL (       1 calls)
     electrons    :   4730.07s CPU   4804.48s WALL (       1 calls)
     forces       :      3.70s CPU      3.79s WALL (       1 calls)
     stress       :      7.46s CPU      7.74s WALL (       1 calls)

     Called by init_run:
     wfcinit      :      3.88s CPU      3.94s WALL (       1 calls)
     wfcinit:wfcr :      3.61s CPU      3.66s WALL (      80 calls)
     potinit      :      0.35s CPU      0.36s WALL (       1 calls)
     hinit0       :      0.61s CPU      0.62s WALL (       1 calls)

     Called by electrons:
     c_bands      :   4340.35s CPU   4386.31s WALL (     155 calls)
     sum_band     :    305.72s CPU    321.85s WALL (     155 calls)
     v_of_rho     :     18.02s CPU     18.13s WALL (     156 calls)
     v_h          :      0.37s CPU      0.37s WALL (     156 calls)
     v_xc         :     17.87s CPU     17.99s WALL (     158 calls)
     newd         :     63.37s CPU     75.44s WALL (     156 calls)
     mix_rho      :      1.96s CPU      2.06s WALL (     155 calls)

     Called by c_bands:
     init_us_2    :     18.33s CPU     19.00s WALL (   25040 calls)
     cegterg      :   4245.88s CPU   4290.50s WALL (   13190 calls)

     Called by sum_band:
     sum_band:wei :      1.33s CPU      1.35s WALL (     155 calls)
     sum_band:loo :    215.37s CPU    218.42s WALL (     155 calls)
     sum_band:buf :      0.90s CPU      0.94s WALL (   12400 calls)
     sum_band:ini :      8.23s CPU      8.41s WALL (   12400 calls)
     sum_band:cal :     71.01s CPU     71.44s WALL (   12400 calls)
     sum_band:bec :      7.61s CPU      7.66s WALL (   12400 calls)
     addusdens    :     86.64s CPU     99.18s WALL (     155 calls)
     addusd:skk   :      0.05s CPU      0.05s WALL (     155 calls)
     addusd:dgemm :     23.27s CPU     32.74s WALL (     310 calls)
     addusd:qvan2 :     58.78s CPU     59.14s WALL (     310 calls)

     Called by *egterg:
     cdiaghg      :    740.60s CPU    744.33s WALL (  203814 calls)
     cegterg:over :    311.77s CPU    315.45s WALL (  190624 calls)
     cegterg:upda :    123.09s CPU    123.89s WALL (  190624 calls)
     cegterg:last :    431.42s CPU    433.13s WALL (   61828 calls)
     h_psi        :   2143.19s CPU   2174.83s WALL (  203894 calls)
     s_psi        :    396.03s CPU    398.35s WALL (  203894 calls)
     g_psi        :      7.37s CPU      7.46s WALL (  190624 calls)

     Called by h_psi:
     h_psi:calbec :    389.25s CPU    393.30s WALL (  203894 calls)
     vloc_psi     :   1349.50s CPU   1375.08s WALL (  203894 calls)
     add_vuspsi   :    398.57s CPU    400.65s WALL (  203894 calls)

     General routines
     calbec       :    462.15s CPU    466.85s WALL (  216694 calls)
     fft          :      7.25s CPU      7.35s WALL (    3938 calls)
     ffts         :      0.38s CPU      0.39s WALL (     622 calls)
     fftw         :   1401.48s CPU   1427.96s WALL ( 4587460 calls)
     interpolate  :      0.78s CPU      0.80s WALL (     312 calls)

     Parallel routines

     PWSCF        :      1h19m CPU      1h20m WALL


   This run was terminated on:   6:58:12   9Dec2021            

=------------------------------------------------------------------------------=
   JOB DONE.
=------------------------------------------------------------------------------=
