
     Program PWSCF v.6.8 starts on  5Dec2021 at 19:34: 9 

     This program is part of the open-source Quantum ESPRESSO suite
     for quantum simulation of materials; please cite
         "P. Giannozzi et al., J. Phys.:Condens. Matter 21 395502 (2009);
         "P. Giannozzi et al., J. Phys.:Condens. Matter 29 465901 (2017);
         "P. Giannozzi et al., J. Chem. Phys. 152 154105 (2020);
          URL http://www.quantum-espresso.org", 
     in publications or presentations arising from this work. More details at
     http://www.quantum-espresso.org/quote

     Parallel version (MPI), running on    32 processors

     MPI processes distributed on     1 nodes
     R & G space division:  proc/nbgrp/npool/nimage =      32
     10742 MiB available memory on the printing compute node when the environment starts

     Reading input from run5.in
Warning: card &CELL ignored
Warning: card    CELL_DYNAMICS = 'BFGS' , ignored
Warning: card    CELL_DOFREE = 'ALL', ignored
Warning: card    PRESS_CONV_THR = 0.5 , ! THIS IS THE DEFAULT ignored
Warning: card  / ignored

     Current dimensions of program PWSCF are:
     Max number of different atomic species (ntypx) = 10
     Max number of k-points (npk) =  40000
     Max angular momentum in pseudopotentials (lmaxx) =  4
     file U.pbe-spfn-rrkjus_psl.1.0.0.UPF: wavefunction(s)  5F renormalized
     Found symmetry operation: I + ( -0.5000  0.5000  0.0000)
     This is a supercell, fractional translations are disabled
     Message from routine setup:
     using ibrav=0 with symmetry is DISCOURAGED, use correct ibrav instead

     Subspace diagonalization in iterative solution of the eigenvalue problem:
     a serial algorithm will be used


     Parallelization info
     --------------------
     sticks:   dense  smooth     PW     G-vecs:    dense   smooth      PW
     Min         130      65     18                 6294     2226     336
     Max         131      67     19                 6298     2231     341
     Sum        4165    2085    593               201485    71327   10827

     Using Slab Decomposition



     bravais-lattice index     =            0
     lattice parameter (alat)  =       8.3778  a.u.
     unit-cell volume          =     588.0141 (a.u.)^3
     number of atoms/cell      =            4
     number of atomic types    =            1
     number of electrons       =        56.00
     number of Kohn-Sham states=           32
     kinetic-energy cutoff     =      93.0000  Ry
     charge density cutoff     =     744.0000  Ry
     scf convergence threshold =      1.0E-08
     mixing beta               =       0.5000
     number of iterations used =            8  plain     mixing
     Exchange-correlation= PBE
                           (   1   4   3   4   0   0   0)

     celldm(1)=   8.377785  celldm(2)=   0.000000  celldm(3)=   0.000000
     celldm(4)=   0.000000  celldm(5)=   0.000000  celldm(6)=   0.000000

     crystal axes: (cart. coord. in units of alat)
               a(1) = (   1.000000   0.000000   0.000000 )  
               a(2) = (   0.000000   1.000000   0.000000 )  
               a(3) = (   0.000000   0.000000   1.000000 )  

     reciprocal axes: (cart. coord. in units 2 pi/alat)
               b(1) = (  1.000000  0.000000  0.000000 )  
               b(2) = (  0.000000  1.000000  0.000000 )  
               b(3) = (  0.000000  0.000000  1.000000 )  


     PseudoPot. # 1 for U  read from file:
     /home/myhawary/QE/runs/pseudo/U.pbe-spfn-rrkjus_psl.1.0.0.UPF
     MD5 check sum: b50a7459bb2a1ad67e79ea3a31ec714c
     Pseudo is Ultrasoft + core correction, Zval = 14.0
     Generated using &quot;atomic&quot; code by A. Dal Corso  v.6.2.2
     Using radial grid of 1291 points,  8 beta functions with: 
                l(1) =   0
                l(2) =   0
                l(3) =   1
                l(4) =   1
                l(5) =   2
                l(6) =   2
                l(7) =   3
                l(8) =   3
     Q(r) pseudized with 0 coefficients 


     atomic species   valence    mass     pseudopotential
        U             14.00   238.00000     U ( 1.00)

     Starting magnetic structure 
     atomic species   magnetization
        U            0.100

     48 Sym. Ops., with inversion, found


                                    s                        frac. trans.

      isym =  1     identity                                     

 cryst.   s( 1) = (     1          0          0      )
                  (     0          1          0      )
                  (     0          0          1      )

 cart.    s( 1) = (  1.0000000  0.0000000  0.0000000 )
                  (  0.0000000  1.0000000  0.0000000 )
                  (  0.0000000  0.0000000  1.0000000 )


      isym =  2     180 deg rotation - cart. axis [0,0,1]        

 cryst.   s( 2) = (    -1          0          0      )
                  (     0         -1          0      )
                  (     0          0          1      )

 cart.    s( 2) = ( -1.0000000  0.0000000  0.0000000 )
                  (  0.0000000 -1.0000000  0.0000000 )
                  (  0.0000000  0.0000000  1.0000000 )


      isym =  3     180 deg rotation - cart. axis [0,1,0]        

 cryst.   s( 3) = (    -1          0          0      )
                  (     0          1          0      )
                  (     0          0         -1      )

 cart.    s( 3) = ( -1.0000000  0.0000000  0.0000000 )
                  (  0.0000000  1.0000000  0.0000000 )
                  (  0.0000000  0.0000000 -1.0000000 )


      isym =  4     180 deg rotation - cart. axis [1,0,0]        

 cryst.   s( 4) = (     1          0          0      )
                  (     0         -1          0      )
                  (     0          0         -1      )

 cart.    s( 4) = (  1.0000000  0.0000000  0.0000000 )
                  (  0.0000000 -1.0000000  0.0000000 )
                  (  0.0000000  0.0000000 -1.0000000 )


      isym =  5     180 deg rotation - cart. axis [1,1,0]        

 cryst.   s( 5) = (     0          1          0      )
                  (     1          0          0      )
                  (     0          0         -1      )

 cart.    s( 5) = (  0.0000000  0.9999999  0.0000000 )
                  (  1.0000001  0.0000000  0.0000000 )
                  (  0.0000000  0.0000000 -1.0000000 )


      isym =  6     180 deg rotation - cart. axis [1,-1,0]       

 cryst.   s( 6) = (     0         -1          0      )
                  (    -1          0          0      )
                  (     0          0         -1      )

 cart.    s( 6) = (  0.0000000 -0.9999999  0.0000000 )
                  ( -1.0000001  0.0000000  0.0000000 )
                  (  0.0000000  0.0000000 -1.0000000 )


      isym =  7      90 deg rotation - cart. axis [0,0,-1]       

 cryst.   s( 7) = (     0         -1          0      )
                  (     1          0          0      )
                  (     0          0          1      )

 cart.    s( 7) = (  0.0000000  0.9999999  0.0000000 )
                  ( -1.0000001  0.0000000  0.0000000 )
                  (  0.0000000  0.0000000  1.0000000 )


      isym =  8      90 deg rotation - cart. axis [0,0,1]        

 cryst.   s( 8) = (     0          1          0      )
                  (    -1          0          0      )
                  (     0          0          1      )

 cart.    s( 8) = (  0.0000000 -0.9999999  0.0000000 )
                  (  1.0000001  0.0000000  0.0000000 )
                  (  0.0000000  0.0000000  1.0000000 )


      isym =  9     180 deg rotation - cart. axis [1,0,1]        

 cryst.   s( 9) = (     0          0          1      )
                  (     0         -1          0      )
                  (     1          0          0      )

 cart.    s( 9) = (  0.0000000  0.0000000  0.9999999 )
                  (  0.0000000 -1.0000000  0.0000000 )
                  (  1.0000001  0.0000000  0.0000000 )


      isym = 10     180 deg rotation - cart. axis [-1,0,1]       

 cryst.   s(10) = (     0          0         -1      )
                  (     0         -1          0      )
                  (    -1          0          0      )

 cart.    s(10) = (  0.0000000  0.0000000 -0.9999999 )
                  (  0.0000000 -1.0000000  0.0000000 )
                  ( -1.0000001  0.0000000  0.0000000 )


      isym = 11      90 deg rotation - cart. axis [0,1,0]        

 cryst.   s(11) = (     0          0         -1      )
                  (     0          1          0      )
                  (     1          0          0      )

 cart.    s(11) = (  0.0000000  0.0000000  0.9999999 )
                  (  0.0000000  1.0000000  0.0000000 )
                  ( -1.0000001  0.0000000  0.0000000 )


      isym = 12      90 deg rotation - cart. axis [0,-1,0]       

 cryst.   s(12) = (     0          0          1      )
                  (     0          1          0      )
                  (    -1          0          0      )

 cart.    s(12) = (  0.0000000  0.0000000 -0.9999999 )
                  (  0.0000000  1.0000000  0.0000000 )
                  (  1.0000001  0.0000000  0.0000000 )


      isym = 13     180 deg rotation - cart. axis [0,1,1]        

 cryst.   s(13) = (    -1          0          0      )
                  (     0          0          1      )
                  (     0          1          0      )

 cart.    s(13) = ( -1.0000000  0.0000000  0.0000000 )
                  (  0.0000000  0.0000000  1.0000000 )
                  (  0.0000000  1.0000000  0.0000000 )


      isym = 14     180 deg rotation - cart. axis [0,1,-1]       

 cryst.   s(14) = (    -1          0          0      )
                  (     0          0         -1      )
                  (     0         -1          0      )

 cart.    s(14) = ( -1.0000000  0.0000000  0.0000000 )
                  (  0.0000000  0.0000000 -1.0000000 )
                  (  0.0000000 -1.0000000  0.0000000 )


      isym = 15      90 deg rotation - cart. axis [-1,0,0]       

 cryst.   s(15) = (     1          0          0      )
                  (     0          0         -1      )
                  (     0          1          0      )

 cart.    s(15) = (  1.0000000  0.0000000  0.0000000 )
                  (  0.0000000  0.0000000  1.0000000 )
                  (  0.0000000 -1.0000000  0.0000000 )


      isym = 16      90 deg rotation - cart. axis [1,0,0]        

 cryst.   s(16) = (     1          0          0      )
                  (     0          0          1      )
                  (     0         -1          0      )

 cart.    s(16) = (  1.0000000  0.0000000  0.0000000 )
                  (  0.0000000  0.0000000 -1.0000000 )
                  (  0.0000000  1.0000000  0.0000000 )


      isym = 17     120 deg rotation - cart. axis [-1,-1,-1]     

 cryst.   s(17) = (     0          0          1      )
                  (     1          0          0      )
                  (     0          1          0      )

 cart.    s(17) = (  0.0000000  0.9999999  0.0000000 )
                  (  0.0000000  0.0000000  1.0000000 )
                  (  1.0000001  0.0000000  0.0000000 )


      isym = 18     120 deg rotation - cart. axis [-1,1,1]       

 cryst.   s(18) = (     0          0         -1      )
                  (    -1          0          0      )
                  (     0          1          0      )

 cart.    s(18) = (  0.0000000 -0.9999999  0.0000000 )
                  (  0.0000000  0.0000000  1.0000000 )
                  ( -1.0000001  0.0000000  0.0000000 )


      isym = 19     120 deg rotation - cart. axis [1,1,-1]       

 cryst.   s(19) = (     0          0         -1      )
                  (     1          0          0      )
                  (     0         -1          0      )

 cart.    s(19) = (  0.0000000  0.9999999  0.0000000 )
                  (  0.0000000  0.0000000 -1.0000000 )
                  ( -1.0000001  0.0000000  0.0000000 )


      isym = 20     120 deg rotation - cart. axis [1,-1,1]       

 cryst.   s(20) = (     0          0          1      )
                  (    -1          0          0      )
                  (     0         -1          0      )

 cart.    s(20) = (  0.0000000 -0.9999999  0.0000000 )
                  (  0.0000000  0.0000000 -1.0000000 )
                  (  1.0000001  0.0000000  0.0000000 )


      isym = 21     120 deg rotation - cart. axis [1,1,1]        

 cryst.   s(21) = (     0          1          0      )
                  (     0          0          1      )
                  (     1          0          0      )

 cart.    s(21) = (  0.0000000  0.0000000  0.9999999 )
                  (  1.0000001  0.0000000  0.0000000 )
                  (  0.0000000  1.0000000  0.0000000 )


      isym = 22     120 deg rotation - cart. axis [-1,1,-1]      

 cryst.   s(22) = (     0         -1          0      )
                  (     0          0         -1      )
                  (     1          0          0      )

 cart.    s(22) = (  0.0000000  0.0000000  0.9999999 )
                  ( -1.0000001  0.0000000  0.0000000 )
                  (  0.0000000 -1.0000000  0.0000000 )


      isym = 23     120 deg rotation - cart. axis [1,-1,-1]      

 cryst.   s(23) = (     0         -1          0      )
                  (     0          0          1      )
                  (    -1          0          0      )

 cart.    s(23) = (  0.0000000  0.0000000 -0.9999999 )
                  ( -1.0000001  0.0000000  0.0000000 )
                  (  0.0000000  1.0000000  0.0000000 )


      isym = 24     120 deg rotation - cart. axis [-1,-1,1]      

 cryst.   s(24) = (     0          1          0      )
                  (     0          0         -1      )
                  (    -1          0          0      )

 cart.    s(24) = (  0.0000000  0.0000000 -0.9999999 )
                  (  1.0000001  0.0000000  0.0000000 )
                  (  0.0000000 -1.0000000  0.0000000 )


      isym = 25     inversion                                    

 cryst.   s(25) = (    -1          0          0      )
                  (     0         -1          0      )
                  (     0          0         -1      )

 cart.    s(25) = ( -1.0000000  0.0000000  0.0000000 )
                  (  0.0000000 -1.0000000  0.0000000 )
                  (  0.0000000  0.0000000 -1.0000000 )


      isym = 26     inv. 180 deg rotation - cart. axis [0,0,1]   

 cryst.   s(26) = (     1          0          0      )
                  (     0          1          0      )
                  (     0          0         -1      )

 cart.    s(26) = (  1.0000000  0.0000000  0.0000000 )
                  (  0.0000000  1.0000000  0.0000000 )
                  (  0.0000000  0.0000000 -1.0000000 )


      isym = 27     inv. 180 deg rotation - cart. axis [0,1,0]   

 cryst.   s(27) = (     1          0          0      )
                  (     0         -1          0      )
                  (     0          0          1      )

 cart.    s(27) = (  1.0000000  0.0000000  0.0000000 )
                  (  0.0000000 -1.0000000  0.0000000 )
                  (  0.0000000  0.0000000  1.0000000 )


      isym = 28     inv. 180 deg rotation - cart. axis [1,0,0]   

 cryst.   s(28) = (    -1          0          0      )
                  (     0          1          0      )
                  (     0          0          1      )

 cart.    s(28) = ( -1.0000000  0.0000000  0.0000000 )
                  (  0.0000000  1.0000000  0.0000000 )
                  (  0.0000000  0.0000000  1.0000000 )


      isym = 29     inv. 180 deg rotation - cart. axis [1,1,0]   

 cryst.   s(29) = (     0         -1          0      )
                  (    -1          0          0      )
                  (     0          0          1      )

 cart.    s(29) = (  0.0000000 -0.9999999  0.0000000 )
                  ( -1.0000001  0.0000000  0.0000000 )
                  (  0.0000000  0.0000000  1.0000000 )


      isym = 30     inv. 180 deg rotation - cart. axis [1,-1,0]  

 cryst.   s(30) = (     0          1          0      )
                  (     1          0          0      )
                  (     0          0          1      )

 cart.    s(30) = (  0.0000000  0.9999999  0.0000000 )
                  (  1.0000001  0.0000000  0.0000000 )
                  (  0.0000000  0.0000000  1.0000000 )


      isym = 31     inv.  90 deg rotation - cart. axis [0,0,-1]  

 cryst.   s(31) = (     0          1          0      )
                  (    -1          0          0      )
                  (     0          0         -1      )

 cart.    s(31) = (  0.0000000 -0.9999999  0.0000000 )
                  (  1.0000001  0.0000000  0.0000000 )
                  (  0.0000000  0.0000000 -1.0000000 )


      isym = 32     inv.  90 deg rotation - cart. axis [0,0,1]   

 cryst.   s(32) = (     0         -1          0      )
                  (     1          0          0      )
                  (     0          0         -1      )

 cart.    s(32) = (  0.0000000  0.9999999  0.0000000 )
                  ( -1.0000001  0.0000000  0.0000000 )
                  (  0.0000000  0.0000000 -1.0000000 )


      isym = 33     inv. 180 deg rotation - cart. axis [1,0,1]   

 cryst.   s(33) = (     0          0         -1      )
                  (     0          1          0      )
                  (    -1          0          0      )

 cart.    s(33) = (  0.0000000  0.0000000 -0.9999999 )
                  (  0.0000000  1.0000000  0.0000000 )
                  ( -1.0000001  0.0000000  0.0000000 )


      isym = 34     inv. 180 deg rotation - cart. axis [-1,0,1]  

 cryst.   s(34) = (     0          0          1      )
                  (     0          1          0      )
                  (     1          0          0      )

 cart.    s(34) = (  0.0000000  0.0000000  0.9999999 )
                  (  0.0000000  1.0000000  0.0000000 )
                  (  1.0000001  0.0000000  0.0000000 )


      isym = 35     inv.  90 deg rotation - cart. axis [0,1,0]   

 cryst.   s(35) = (     0          0          1      )
                  (     0         -1          0      )
                  (    -1          0          0      )

 cart.    s(35) = (  0.0000000  0.0000000 -0.9999999 )
                  (  0.0000000 -1.0000000  0.0000000 )
                  (  1.0000001  0.0000000  0.0000000 )


      isym = 36     inv.  90 deg rotation - cart. axis [0,-1,0]  

 cryst.   s(36) = (     0          0         -1      )
                  (     0         -1          0      )
                  (     1          0          0      )

 cart.    s(36) = (  0.0000000  0.0000000  0.9999999 )
                  (  0.0000000 -1.0000000  0.0000000 )
                  ( -1.0000001  0.0000000  0.0000000 )


      isym = 37     inv. 180 deg rotation - cart. axis [0,1,1]   

 cryst.   s(37) = (     1          0          0      )
                  (     0          0         -1      )
                  (     0         -1          0      )

 cart.    s(37) = (  1.0000000  0.0000000  0.0000000 )
                  (  0.0000000  0.0000000 -1.0000000 )
                  (  0.0000000 -1.0000000  0.0000000 )


      isym = 38     inv. 180 deg rotation - cart. axis [0,1,-1]  

 cryst.   s(38) = (     1          0          0      )
                  (     0          0          1      )
                  (     0          1          0      )

 cart.    s(38) = (  1.0000000  0.0000000  0.0000000 )
                  (  0.0000000  0.0000000  1.0000000 )
                  (  0.0000000  1.0000000  0.0000000 )


      isym = 39     inv.  90 deg rotation - cart. axis [-1,0,0]  

 cryst.   s(39) = (    -1          0          0      )
                  (     0          0          1      )
                  (     0         -1          0      )

 cart.    s(39) = ( -1.0000000  0.0000000  0.0000000 )
                  (  0.0000000  0.0000000 -1.0000000 )
                  (  0.0000000  1.0000000  0.0000000 )


      isym = 40     inv.  90 deg rotation - cart. axis [1,0,0]   

 cryst.   s(40) = (    -1          0          0      )
                  (     0          0         -1      )
                  (     0          1          0      )

 cart.    s(40) = ( -1.0000000  0.0000000  0.0000000 )
                  (  0.0000000  0.0000000  1.0000000 )
                  (  0.0000000 -1.0000000  0.0000000 )


      isym = 41     inv. 120 deg rotation - cart. axis [-1,-1,-1]

 cryst.   s(41) = (     0          0         -1      )
                  (    -1          0          0      )
                  (     0         -1          0      )

 cart.    s(41) = (  0.0000000 -0.9999999  0.0000000 )
                  (  0.0000000  0.0000000 -1.0000000 )
                  ( -1.0000001  0.0000000  0.0000000 )


      isym = 42     inv. 120 deg rotation - cart. axis [-1,1,1]  

 cryst.   s(42) = (     0          0          1      )
                  (     1          0          0      )
                  (     0         -1          0      )

 cart.    s(42) = (  0.0000000  0.9999999  0.0000000 )
                  (  0.0000000  0.0000000 -1.0000000 )
                  (  1.0000001  0.0000000  0.0000000 )


      isym = 43     inv. 120 deg rotation - cart. axis [1,1,-1]  

 cryst.   s(43) = (     0          0          1      )
                  (    -1          0          0      )
                  (     0          1          0      )

 cart.    s(43) = (  0.0000000 -0.9999999  0.0000000 )
                  (  0.0000000  0.0000000  1.0000000 )
                  (  1.0000001  0.0000000  0.0000000 )


      isym = 44     inv. 120 deg rotation - cart. axis [1,-1,1]  

 cryst.   s(44) = (     0          0         -1      )
                  (     1          0          0      )
                  (     0          1          0      )

 cart.    s(44) = (  0.0000000  0.9999999  0.0000000 )
                  (  0.0000000  0.0000000  1.0000000 )
                  ( -1.0000001  0.0000000  0.0000000 )


      isym = 45     inv. 120 deg rotation - cart. axis [1,1,1]   

 cryst.   s(45) = (     0         -1          0      )
                  (     0          0         -1      )
                  (    -1          0          0      )

 cart.    s(45) = (  0.0000000  0.0000000 -0.9999999 )
                  ( -1.0000001  0.0000000  0.0000000 )
                  (  0.0000000 -1.0000000  0.0000000 )


      isym = 46     inv. 120 deg rotation - cart. axis [-1,1,-1] 

 cryst.   s(46) = (     0          1          0      )
                  (     0          0          1      )
                  (    -1          0          0      )

 cart.    s(46) = (  0.0000000  0.0000000 -0.9999999 )
                  (  1.0000001  0.0000000  0.0000000 )
                  (  0.0000000  1.0000000  0.0000000 )


      isym = 47     inv. 120 deg rotation - cart. axis [1,-1,-1] 

 cryst.   s(47) = (     0          1          0      )
                  (     0          0         -1      )
                  (     1          0          0      )

 cart.    s(47) = (  0.0000000  0.0000000  0.9999999 )
                  (  1.0000001  0.0000000  0.0000000 )
                  (  0.0000000 -1.0000000  0.0000000 )


      isym = 48     inv. 120 deg rotation - cart. axis [-1,-1,1] 

 cryst.   s(48) = (     0         -1          0      )
                  (     0          0          1      )
                  (     1          0          0      )

 cart.    s(48) = (  0.0000000  0.0000000  0.9999999 )
                  ( -1.0000001  0.0000000  0.0000000 )
                  (  0.0000000  1.0000000  0.0000000 )


   Cartesian axes

     site n.     atom                  positions (alat units)
         1           U   tau(   1) = (   0.0000000   0.0000000   0.0000000  )
         2           U   tau(   2) = (   0.5000000   0.5000000   0.0000000  )
         3           U   tau(   3) = (   0.5000000   0.0000000   0.5000000  )
         4           U   tau(   4) = (   0.0000000   0.5000000   0.5000000  )

   Crystallographic axes

     site n.     atom                  positions (cryst. coord.)
         1           U   tau(   1) = (  0.0000000  0.0000000  0.0000000  )
         2           U   tau(   2) = (  0.5000000  0.5000000  0.0000000  )
         3           U   tau(   3) = (  0.5000000  0.0000000  0.5000000  )
         4           U   tau(   4) = (  0.0000000  0.5000000  0.5000000  )

     number of k points=    56  Marzari-Vanderbilt smearing, width (Ry)=  0.0500
                       cart. coord. in units 2pi/alat
        k(    1) = (   0.0000000   0.0000000   0.0000000), wk =   0.0010000
        k(    2) = (   0.0000000   0.0000000   0.1000000), wk =   0.0060000
        k(    3) = (   0.0000000   0.0000000   0.2000000), wk =   0.0060000
        k(    4) = (   0.0000000   0.0000000   0.3000000), wk =   0.0060000
        k(    5) = (   0.0000000   0.0000000   0.4000000), wk =   0.0060000
        k(    6) = (   0.0000000   0.0000000  -0.5000000), wk =   0.0030000
        k(    7) = (   0.0000000   0.1000000   0.1000000), wk =   0.0120000
        k(    8) = (   0.0000000   0.1000000   0.2000000), wk =   0.0240000
        k(    9) = (   0.0000000   0.1000000   0.3000000), wk =   0.0240000
        k(   10) = (   0.0000000   0.1000000   0.4000000), wk =   0.0240000
        k(   11) = (   0.0000000   0.1000000  -0.5000000), wk =   0.0120000
        k(   12) = (   0.0000000   0.2000000   0.2000000), wk =   0.0120000
        k(   13) = (   0.0000000   0.2000000   0.3000000), wk =   0.0240000
        k(   14) = (   0.0000000   0.2000000   0.4000000), wk =   0.0240000
        k(   15) = (   0.0000000   0.2000000  -0.5000000), wk =   0.0120000
        k(   16) = (   0.0000000   0.3000000   0.3000000), wk =   0.0120000
        k(   17) = (   0.0000000   0.3000000   0.4000000), wk =   0.0240000
        k(   18) = (   0.0000000   0.3000000  -0.5000000), wk =   0.0120000
        k(   19) = (   0.0000000   0.4000000   0.4000000), wk =   0.0120000
        k(   20) = (   0.0000000   0.4000000  -0.5000000), wk =   0.0120000
        k(   21) = (   0.0000000  -0.5000000  -0.5000000), wk =   0.0030000
        k(   22) = (   0.1000000   0.1000000   0.1000000), wk =   0.0080000
        k(   23) = (   0.1000000   0.1000000   0.2000000), wk =   0.0240000
        k(   24) = (   0.1000000   0.1000000   0.3000000), wk =   0.0240000
        k(   25) = (   0.1000000   0.1000000   0.4000000), wk =   0.0240000
        k(   26) = (   0.1000000   0.1000000  -0.5000000), wk =   0.0120000
        k(   27) = (   0.1000000   0.2000000   0.2000000), wk =   0.0240000
        k(   28) = (   0.1000000   0.2000000   0.3000000), wk =   0.0480000
        k(   29) = (   0.1000000   0.2000000   0.4000000), wk =   0.0480000
        k(   30) = (   0.1000000   0.2000000  -0.5000000), wk =   0.0240000
        k(   31) = (   0.1000000   0.3000000   0.3000000), wk =   0.0240000
        k(   32) = (   0.1000000   0.3000000   0.4000000), wk =   0.0480000
        k(   33) = (   0.1000000   0.3000000  -0.5000000), wk =   0.0240000
        k(   34) = (   0.1000000   0.4000000   0.4000000), wk =   0.0240000
        k(   35) = (   0.1000000   0.4000000  -0.5000000), wk =   0.0240000
        k(   36) = (   0.1000000  -0.5000000  -0.5000000), wk =   0.0060000
        k(   37) = (   0.2000000   0.2000000   0.2000000), wk =   0.0080000
        k(   38) = (   0.2000000   0.2000000   0.3000000), wk =   0.0240000
        k(   39) = (   0.2000000   0.2000000   0.4000000), wk =   0.0240000
        k(   40) = (   0.2000000   0.2000000  -0.5000000), wk =   0.0120000
        k(   41) = (   0.2000000   0.3000000   0.3000000), wk =   0.0240000
        k(   42) = (   0.2000000   0.3000000   0.4000000), wk =   0.0480000
        k(   43) = (   0.2000000   0.3000000  -0.5000000), wk =   0.0240000
        k(   44) = (   0.2000000   0.4000000   0.4000000), wk =   0.0240000
        k(   45) = (   0.2000000   0.4000000  -0.5000000), wk =   0.0240000
        k(   46) = (   0.2000000  -0.5000000  -0.5000000), wk =   0.0060000
        k(   47) = (   0.3000000   0.3000000   0.3000000), wk =   0.0080000
        k(   48) = (   0.3000000   0.3000000   0.4000000), wk =   0.0240000
        k(   49) = (   0.3000000   0.3000000  -0.5000000), wk =   0.0120000
        k(   50) = (   0.3000000   0.4000000   0.4000000), wk =   0.0240000
        k(   51) = (   0.3000000   0.4000000  -0.5000000), wk =   0.0240000
        k(   52) = (   0.3000000  -0.5000000  -0.5000000), wk =   0.0060000
        k(   53) = (   0.4000000   0.4000000   0.4000000), wk =   0.0080000
        k(   54) = (   0.4000000   0.4000000  -0.5000000), wk =   0.0120000
        k(   55) = (   0.4000000  -0.5000000  -0.5000000), wk =   0.0060000
        k(   56) = (  -0.5000000  -0.5000000  -0.5000000), wk =   0.0010000

                       cryst. coord.
        k(    1) = (   0.0000000   0.0000000   0.0000000), wk =   0.0010000
        k(    2) = (   0.0000000   0.0000000   0.1000000), wk =   0.0060000
        k(    3) = (   0.0000000   0.0000000   0.2000000), wk =   0.0060000
        k(    4) = (   0.0000000   0.0000000   0.3000000), wk =   0.0060000
        k(    5) = (   0.0000000   0.0000000   0.4000000), wk =   0.0060000
        k(    6) = (   0.0000000   0.0000000  -0.5000000), wk =   0.0030000
        k(    7) = (   0.0000000   0.1000000   0.1000000), wk =   0.0120000
        k(    8) = (   0.0000000   0.1000000   0.2000000), wk =   0.0240000
        k(    9) = (   0.0000000   0.1000000   0.3000000), wk =   0.0240000
        k(   10) = (   0.0000000   0.1000000   0.4000000), wk =   0.0240000
        k(   11) = (   0.0000000   0.1000000  -0.5000000), wk =   0.0120000
        k(   12) = (   0.0000000   0.2000000   0.2000000), wk =   0.0120000
        k(   13) = (   0.0000000   0.2000000   0.3000000), wk =   0.0240000
        k(   14) = (   0.0000000   0.2000000   0.4000000), wk =   0.0240000
        k(   15) = (   0.0000000   0.2000000  -0.5000000), wk =   0.0120000
        k(   16) = (   0.0000000   0.3000000   0.3000000), wk =   0.0120000
        k(   17) = (   0.0000000   0.3000000   0.4000000), wk =   0.0240000
        k(   18) = (   0.0000000   0.3000000  -0.5000000), wk =   0.0120000
        k(   19) = (   0.0000000   0.4000000   0.4000000), wk =   0.0120000
        k(   20) = (   0.0000000   0.4000000  -0.5000000), wk =   0.0120000
        k(   21) = (   0.0000000  -0.5000000  -0.5000000), wk =   0.0030000
        k(   22) = (   0.1000000   0.1000000   0.1000000), wk =   0.0080000
        k(   23) = (   0.1000000   0.1000000   0.2000000), wk =   0.0240000
        k(   24) = (   0.1000000   0.1000000   0.3000000), wk =   0.0240000
        k(   25) = (   0.1000000   0.1000000   0.4000000), wk =   0.0240000
        k(   26) = (   0.1000000   0.1000000  -0.5000000), wk =   0.0120000
        k(   27) = (   0.1000000   0.2000000   0.2000000), wk =   0.0240000
        k(   28) = (   0.1000000   0.2000000   0.3000000), wk =   0.0480000
        k(   29) = (   0.1000000   0.2000000   0.4000000), wk =   0.0480000
        k(   30) = (   0.1000000   0.2000000  -0.5000000), wk =   0.0240000
        k(   31) = (   0.1000000   0.3000000   0.3000000), wk =   0.0240000
        k(   32) = (   0.1000000   0.3000000   0.4000000), wk =   0.0480000
        k(   33) = (   0.1000000   0.3000000  -0.5000000), wk =   0.0240000
        k(   34) = (   0.1000000   0.4000000   0.4000000), wk =   0.0240000
        k(   35) = (   0.1000000   0.4000000  -0.5000000), wk =   0.0240000
        k(   36) = (   0.1000000  -0.5000000  -0.5000000), wk =   0.0060000
        k(   37) = (   0.2000000   0.2000000   0.2000000), wk =   0.0080000
        k(   38) = (   0.2000000   0.2000000   0.3000000), wk =   0.0240000
        k(   39) = (   0.2000000   0.2000000   0.4000000), wk =   0.0240000
        k(   40) = (   0.2000000   0.2000000  -0.5000000), wk =   0.0120000
        k(   41) = (   0.2000000   0.3000000   0.3000000), wk =   0.0240000
        k(   42) = (   0.2000000   0.3000000   0.4000000), wk =   0.0480000
        k(   43) = (   0.2000000   0.3000000  -0.5000000), wk =   0.0240000
        k(   44) = (   0.2000000   0.4000000   0.4000000), wk =   0.0240000
        k(   45) = (   0.2000000   0.4000000  -0.5000000), wk =   0.0240000
        k(   46) = (   0.2000000  -0.5000000  -0.5000000), wk =   0.0060000
        k(   47) = (   0.3000000   0.3000000   0.3000000), wk =   0.0080000
        k(   48) = (   0.3000000   0.3000000   0.4000000), wk =   0.0240000
        k(   49) = (   0.3000000   0.3000000  -0.5000000), wk =   0.0120000
        k(   50) = (   0.3000000   0.4000000   0.4000000), wk =   0.0240000
        k(   51) = (   0.3000000   0.4000000  -0.5000000), wk =   0.0240000
        k(   52) = (   0.3000000  -0.5000000  -0.5000000), wk =   0.0060000
        k(   53) = (   0.4000000   0.4000000   0.4000000), wk =   0.0080000
        k(   54) = (   0.4000000   0.4000000  -0.5000000), wk =   0.0120000
        k(   55) = (   0.4000000  -0.5000000  -0.5000000), wk =   0.0060000
        k(   56) = (  -0.5000000  -0.5000000  -0.5000000), wk =   0.0010000

     Dense  grid:   201485 G-vectors     FFT dimensions: (  75,  75,  75)

     Smooth grid:    71327 G-vectors     FFT dimensions: (  54,  54,  54)

     Dynamical RAM for                 wfc:       0.14 MB

     Dynamical RAM for     wfc (w. buffer):      15.34 MB

     Dynamical RAM for           str. fact:       0.10 MB

     Dynamical RAM for           local pot:       0.00 MB

     Dynamical RAM for          nlocal pot:       0.54 MB

     Dynamical RAM for                qrad:       5.25 MB

     Dynamical RAM for          rho,v,vnew:       1.35 MB

     Dynamical RAM for               rhoin:       0.45 MB

     Dynamical RAM for            rho*nmix:       3.07 MB

     Dynamical RAM for           G-vectors:       0.38 MB

     Dynamical RAM for          h,s,v(r/c):       0.19 MB

     Dynamical RAM for          <psi|beta>:       0.06 MB

     Dynamical RAM for                 psi:       0.27 MB

     Dynamical RAM for                hpsi:       0.27 MB

     Dynamical RAM for                spsi:       0.27 MB

     Dynamical RAM for      wfcinit/wfcrot:       0.30 MB

     Dynamical RAM for           addusdens:      53.80 MB

     Dynamical RAM for          addusforce:      54.47 MB

     Dynamical RAM for         addusstress:      56.06 MB

     Estimated static dynamical RAM per process >      24.37 MB

     Estimated max dynamical RAM per process >      83.50 MB

     Estimated total dynamical RAM >       2.61 GB
     Generating pointlists ...
     new r_m :   0.2917 (alat units)  2.4436 (a.u.) for type    1

     Initial potential from superposition of free atoms

     starting charge   55.98204, renormalised to   56.00000
     Starting wfcs are random

     total cpu time spent up to now is        6.6 secs

     Self-consistent Calculation

     iteration #  1     ecut=    93.00 Ry     beta= 0.50
     Davidson diagonalization with overlap

---- Real-time Memory Report at c_bands before calling an iterative solver
            91 MiB given to the printing process from OS
             0 MiB allocation reported by mallinfo(arena+hblkhd)
          9653 MiB available memory on the node where the printing process lives
------------------
     ethr =  1.00E-02,  avg # of iterations = 11.2

     total cpu time spent up to now is       49.3 secs

     total energy              =    -516.14389129 Ry
     estimated scf accuracy    <       1.80895696 Ry

     total magnetization       =     2.32 Bohr mag/cell
     absolute magnetization    =     2.32 Bohr mag/cell

     iteration #  2     ecut=    93.00 Ry     beta= 0.50
     Davidson diagonalization with overlap

---- Real-time Memory Report at c_bands before calling an iterative solver
           110 MiB given to the printing process from OS
             0 MiB allocation reported by mallinfo(arena+hblkhd)
          9497 MiB available memory on the node where the printing process lives
------------------
     ethr =  3.23E-03,  avg # of iterations =  7.0

     total cpu time spent up to now is       75.8 secs

     total energy              =    -517.14176346 Ry
     estimated scf accuracy    <       1.62005134 Ry

     total magnetization       =     2.77 Bohr mag/cell
     absolute magnetization    =     2.77 Bohr mag/cell

     iteration #  3     ecut=    93.00 Ry     beta= 0.50
     Davidson diagonalization with overlap

---- Real-time Memory Report at c_bands before calling an iterative solver
           111 MiB given to the printing process from OS
             0 MiB allocation reported by mallinfo(arena+hblkhd)
          9493 MiB available memory on the node where the printing process lives
------------------
     ethr =  2.89E-03,  avg # of iterations =  2.1

     total cpu time spent up to now is       90.4 secs

     total energy              =    -517.29660862 Ry
     estimated scf accuracy    <       0.14212594 Ry

     total magnetization       =     2.08 Bohr mag/cell
     absolute magnetization    =     2.08 Bohr mag/cell

     iteration #  4     ecut=    93.00 Ry     beta= 0.50
     Davidson diagonalization with overlap

---- Real-time Memory Report at c_bands before calling an iterative solver
           111 MiB given to the printing process from OS
             0 MiB allocation reported by mallinfo(arena+hblkhd)
          9482 MiB available memory on the node where the printing process lives
------------------
     c_bands:  2 eigenvalues not converged
     c_bands:  2 eigenvalues not converged
     c_bands:  2 eigenvalues not converged
     c_bands:  1 eigenvalues not converged
     c_bands:  3 eigenvalues not converged
     c_bands:  3 eigenvalues not converged
     c_bands:  4 eigenvalues not converged
     c_bands:  1 eigenvalues not converged
     c_bands:  1 eigenvalues not converged
     c_bands:  2 eigenvalues not converged
     c_bands:  1 eigenvalues not converged
     c_bands:  1 eigenvalues not converged
     c_bands:  2 eigenvalues not converged
     c_bands:  2 eigenvalues not converged
     c_bands:  1 eigenvalues not converged
     c_bands:  1 eigenvalues not converged
     c_bands:  1 eigenvalues not converged
     c_bands:  3 eigenvalues not converged
     c_bands:  3 eigenvalues not converged
     c_bands:  3 eigenvalues not converged
     c_bands:  2 eigenvalues not converged
     c_bands:  1 eigenvalues not converged
     c_bands:  1 eigenvalues not converged
     c_bands:  1 eigenvalues not converged
     c_bands:  2 eigenvalues not converged
     c_bands:  3 eigenvalues not converged
     c_bands:  2 eigenvalues not converged
     c_bands:  3 eigenvalues not converged
     c_bands:  2 eigenvalues not converged
     c_bands:  4 eigenvalues not converged
     c_bands:  2 eigenvalues not converged
     c_bands:  3 eigenvalues not converged
     c_bands:  1 eigenvalues not converged
     c_bands:  2 eigenvalues not converged
     c_bands:  4 eigenvalues not converged
     c_bands:  2 eigenvalues not converged
     c_bands:  3 eigenvalues not converged
     c_bands:  4 eigenvalues not converged
     c_bands:  3 eigenvalues not converged
     c_bands:  3 eigenvalues not converged
     c_bands:  2 eigenvalues not converged
     c_bands:  3 eigenvalues not converged
     c_bands:  2 eigenvalues not converged
     c_bands:  1 eigenvalues not converged
     c_bands:  3 eigenvalues not converged
     c_bands:  1 eigenvalues not converged
     c_bands:  5 eigenvalues not converged
     c_bands:  2 eigenvalues not converged
     c_bands:  1 eigenvalues not converged
     c_bands:  1 eigenvalues not converged
     c_bands:  1 eigenvalues not converged
     c_bands:  2 eigenvalues not converged
     c_bands:  1 eigenvalues not converged
     c_bands:  2 eigenvalues not converged
     c_bands:  1 eigenvalues not converged
     c_bands:  3 eigenvalues not converged
     c_bands:  2 eigenvalues not converged
     c_bands:  1 eigenvalues not converged
     c_bands:  1 eigenvalues not converged
     c_bands:  1 eigenvalues not converged
     c_bands:  2 eigenvalues not converged
     c_bands:  2 eigenvalues not converged
     c_bands:  3 eigenvalues not converged
     c_bands:  2 eigenvalues not converged
     c_bands:  2 eigenvalues not converged
     c_bands:  1 eigenvalues not converged
     c_bands:  2 eigenvalues not converged
     c_bands:  2 eigenvalues not converged
     c_bands:  1 eigenvalues not converged
     c_bands:  4 eigenvalues not converged
     c_bands:  3 eigenvalues not converged
     c_bands:  1 eigenvalues not converged
     c_bands:  3 eigenvalues not converged
     c_bands:  3 eigenvalues not converged
     c_bands:  4 eigenvalues not converged
     c_bands:  3 eigenvalues not converged
     c_bands:  4 eigenvalues not converged
     c_bands:  3 eigenvalues not converged
     c_bands:  2 eigenvalues not converged
     c_bands:  1 eigenvalues not converged
     ethr =  2.54E-04,  avg # of iterations = 19.4

     total cpu time spent up to now is      129.3 secs

     total energy              =    -517.45318952 Ry
     estimated scf accuracy    <       0.17552679 Ry

     total magnetization       =     1.95 Bohr mag/cell
     absolute magnetization    =     1.96 Bohr mag/cell

     iteration #  5     ecut=    93.00 Ry     beta= 0.50
     Davidson diagonalization with overlap

---- Real-time Memory Report at c_bands before calling an iterative solver
           112 MiB given to the printing process from OS
             0 MiB allocation reported by mallinfo(arena+hblkhd)
          9459 MiB available memory on the node where the printing process lives
------------------
     c_bands:  2 eigenvalues not converged
     c_bands:  1 eigenvalues not converged
     c_bands:  2 eigenvalues not converged
     c_bands:  1 eigenvalues not converged
     c_bands:  3 eigenvalues not converged
     c_bands:  2 eigenvalues not converged
     c_bands:  2 eigenvalues not converged
     c_bands:  1 eigenvalues not converged
     c_bands:  1 eigenvalues not converged
     c_bands:  1 eigenvalues not converged
     c_bands:  1 eigenvalues not converged
     ethr =  2.54E-04,  avg # of iterations =  7.2

     total cpu time spent up to now is      146.1 secs

     total energy              =    -517.45000358 Ry
     estimated scf accuracy    <       0.04842357 Ry

     total magnetization       =     1.93 Bohr mag/cell
     absolute magnetization    =     1.93 Bohr mag/cell

     iteration #  6     ecut=    93.00 Ry     beta= 0.50
     Davidson diagonalization with overlap

---- Real-time Memory Report at c_bands before calling an iterative solver
           112 MiB given to the printing process from OS
             0 MiB allocation reported by mallinfo(arena+hblkhd)
          9455 MiB available memory on the node where the printing process lives
------------------
     c_bands:  1 eigenvalues not converged
     c_bands:  1 eigenvalues not converged
     c_bands:  3 eigenvalues not converged
     c_bands:  2 eigenvalues not converged
     c_bands:  1 eigenvalues not converged
     c_bands:  1 eigenvalues not converged
     c_bands:  1 eigenvalues not converged
     c_bands:  1 eigenvalues not converged
     c_bands:  4 eigenvalues not converged
     c_bands:  1 eigenvalues not converged
     c_bands:  2 eigenvalues not converged
     c_bands:  2 eigenvalues not converged
     c_bands:  5 eigenvalues not converged
     c_bands:  2 eigenvalues not converged
     c_bands:  2 eigenvalues not converged
     c_bands:  3 eigenvalues not converged
     c_bands:  1 eigenvalues not converged
     c_bands:  2 eigenvalues not converged
     c_bands:  3 eigenvalues not converged
     c_bands:  1 eigenvalues not converged
     c_bands:  1 eigenvalues not converged
     c_bands:  5 eigenvalues not converged
     c_bands:  1 eigenvalues not converged
     c_bands:  4 eigenvalues not converged
     c_bands:  2 eigenvalues not converged
     c_bands:  2 eigenvalues not converged
     c_bands:  3 eigenvalues not converged
     c_bands:  2 eigenvalues not converged
     c_bands:  3 eigenvalues not converged
     c_bands:  2 eigenvalues not converged
     c_bands:  1 eigenvalues not converged
     c_bands:  4 eigenvalues not converged
     c_bands:  2 eigenvalues not converged
     c_bands:  1 eigenvalues not converged
     c_bands:  3 eigenvalues not converged
     c_bands:  3 eigenvalues not converged
     c_bands:  3 eigenvalues not converged
     c_bands:  5 eigenvalues not converged
     c_bands:  4 eigenvalues not converged
     c_bands:  3 eigenvalues not converged
     c_bands:  1 eigenvalues not converged
     c_bands:  2 eigenvalues not converged
     c_bands:  2 eigenvalues not converged
     c_bands:  3 eigenvalues not converged
     c_bands:  3 eigenvalues not converged
     c_bands:  5 eigenvalues not converged
     c_bands:  3 eigenvalues not converged
     c_bands:  1 eigenvalues not converged
     c_bands:  3 eigenvalues not converged
     c_bands:  2 eigenvalues not converged
     c_bands:  1 eigenvalues not converged
     c_bands:  2 eigenvalues not converged
     c_bands:  2 eigenvalues not converged
     c_bands:  1 eigenvalues not converged
     c_bands:  1 eigenvalues not converged
     c_bands:  3 eigenvalues not converged
     c_bands:  2 eigenvalues not converged
     c_bands:  4 eigenvalues not converged
     c_bands:  4 eigenvalues not converged
     c_bands:  2 eigenvalues not converged
     c_bands:  2 eigenvalues not converged
     c_bands:  3 eigenvalues not converged
     c_bands:  2 eigenvalues not converged
     c_bands:  3 eigenvalues not converged
     c_bands:  1 eigenvalues not converged
     c_bands:  1 eigenvalues not converged
     c_bands:  1 eigenvalues not converged
     c_bands:  1 eigenvalues not converged
     c_bands:  2 eigenvalues not converged
     c_bands:  2 eigenvalues not converged
     c_bands:  5 eigenvalues not converged
     c_bands:  4 eigenvalues not converged
     c_bands:  3 eigenvalues not converged
     c_bands:  2 eigenvalues not converged
     c_bands:  2 eigenvalues not converged
     c_bands:  3 eigenvalues not converged
     c_bands:  3 eigenvalues not converged
     c_bands:  4 eigenvalues not converged
     c_bands:  4 eigenvalues not converged
     c_bands:  1 eigenvalues not converged
     c_bands:  4 eigenvalues not converged
     c_bands:  2 eigenvalues not converged
     c_bands:  2 eigenvalues not converged
     c_bands:  2 eigenvalues not converged
     c_bands:  1 eigenvalues not converged
     c_bands:  2 eigenvalues not converged
     c_bands:  4 eigenvalues not converged
     c_bands:  1 eigenvalues not converged
     c_bands:  3 eigenvalues not converged
     c_bands:  2 eigenvalues not converged
     c_bands:  5 eigenvalues not converged
     c_bands:  5 eigenvalues not converged
     c_bands:  5 eigenvalues not converged
     c_bands:  5 eigenvalues not converged
     c_bands:  5 eigenvalues not converged
     ethr =  8.65E-05,  avg # of iterations = 20.5

     total cpu time spent up to now is      186.9 secs

     total energy              =    -517.47241477 Ry
     estimated scf accuracy    <       1.03491325 Ry

     total magnetization       =     1.78 Bohr mag/cell
     absolute magnetization    =     1.79 Bohr mag/cell

     iteration #  7     ecut=    93.00 Ry     beta= 0.50
     Davidson diagonalization with overlap

---- Real-time Memory Report at c_bands before calling an iterative solver
           113 MiB given to the printing process from OS
             0 MiB allocation reported by mallinfo(arena+hblkhd)
          9444 MiB available memory on the node where the printing process lives
------------------
     c_bands:  2 eigenvalues not converged
     c_bands:  1 eigenvalues not converged
     c_bands:  1 eigenvalues not converged
     c_bands:  1 eigenvalues not converged
     c_bands:  1 eigenvalues not converged
     c_bands:  1 eigenvalues not converged
     c_bands:  1 eigenvalues not converged
     c_bands:  3 eigenvalues not converged
     c_bands:  3 eigenvalues not converged
     c_bands:  1 eigenvalues not converged
     c_bands:  1 eigenvalues not converged
     c_bands:  2 eigenvalues not converged
     c_bands:  1 eigenvalues not converged
     c_bands:  1 eigenvalues not converged
     c_bands:  2 eigenvalues not converged
     c_bands:  1 eigenvalues not converged
     c_bands:  3 eigenvalues not converged
     c_bands:  2 eigenvalues not converged
     c_bands:  1 eigenvalues not converged
     c_bands:  1 eigenvalues not converged
     c_bands:  1 eigenvalues not converged
     c_bands:  1 eigenvalues not converged
     c_bands:  1 eigenvalues not converged
     c_bands:  2 eigenvalues not converged
     ethr =  8.65E-05,  avg # of iterations = 12.9

     total cpu time spent up to now is      208.9 secs

     total energy              =    -517.46112574 Ry
     estimated scf accuracy    <       0.32059481 Ry

     total magnetization       =     1.78 Bohr mag/cell
     absolute magnetization    =     1.79 Bohr mag/cell

     iteration #  8     ecut=    93.00 Ry     beta= 0.50
     Davidson diagonalization with overlap

---- Real-time Memory Report at c_bands before calling an iterative solver
           113 MiB given to the printing process from OS
             0 MiB allocation reported by mallinfo(arena+hblkhd)
          9435 MiB available memory on the node where the printing process lives
------------------
     c_bands:  2 eigenvalues not converged
     c_bands:  2 eigenvalues not converged
     c_bands:  1 eigenvalues not converged
     c_bands:  3 eigenvalues not converged
     c_bands:  1 eigenvalues not converged
     c_bands:  1 eigenvalues not converged
     c_bands:  1 eigenvalues not converged
     c_bands:  1 eigenvalues not converged
     c_bands:  1 eigenvalues not converged
     c_bands:  1 eigenvalues not converged
     c_bands:  1 eigenvalues not converged
     c_bands:  1 eigenvalues not converged
     c_bands:  1 eigenvalues not converged
     c_bands:  3 eigenvalues not converged
     c_bands:  1 eigenvalues not converged
     c_bands:  1 eigenvalues not converged
     c_bands:  1 eigenvalues not converged
     c_bands:  3 eigenvalues not converged
     ethr =  8.65E-05,  avg # of iterations = 13.3

     total cpu time spent up to now is      235.7 secs

     total energy              =    -517.48273615 Ry
     estimated scf accuracy    <       0.01088590 Ry

     total magnetization       =     1.68 Bohr mag/cell
     absolute magnetization    =     1.70 Bohr mag/cell

     iteration #  9     ecut=    93.00 Ry     beta= 0.50
     Davidson diagonalization with overlap

---- Real-time Memory Report at c_bands before calling an iterative solver
           114 MiB given to the printing process from OS
             0 MiB allocation reported by mallinfo(arena+hblkhd)
          9433 MiB available memory on the node where the printing process lives
------------------
     c_bands:  2 eigenvalues not converged
     c_bands:  1 eigenvalues not converged
     c_bands:  3 eigenvalues not converged
     c_bands:  1 eigenvalues not converged
     c_bands:  2 eigenvalues not converged
     c_bands:  3 eigenvalues not converged
     c_bands:  3 eigenvalues not converged
     c_bands:  1 eigenvalues not converged
     c_bands:  2 eigenvalues not converged
     c_bands:  1 eigenvalues not converged
     c_bands:  1 eigenvalues not converged
     c_bands:  3 eigenvalues not converged
     c_bands:  2 eigenvalues not converged
     c_bands:  2 eigenvalues not converged
     c_bands:  2 eigenvalues not converged
     c_bands:  3 eigenvalues not converged
     c_bands:  1 eigenvalues not converged
     c_bands:  1 eigenvalues not converged
     c_bands:  1 eigenvalues not converged
     c_bands:  1 eigenvalues not converged
     c_bands:  2 eigenvalues not converged
     c_bands:  2 eigenvalues not converged
     c_bands:  2 eigenvalues not converged
     c_bands:  2 eigenvalues not converged
     c_bands:  1 eigenvalues not converged
     c_bands:  3 eigenvalues not converged
     c_bands:  4 eigenvalues not converged
     c_bands:  1 eigenvalues not converged
     c_bands:  3 eigenvalues not converged
     c_bands:  2 eigenvalues not converged
     c_bands:  2 eigenvalues not converged
     c_bands:  1 eigenvalues not converged
     c_bands:  1 eigenvalues not converged
     c_bands:  1 eigenvalues not converged
     c_bands:  1 eigenvalues not converged
     c_bands:  4 eigenvalues not converged
     c_bands:  2 eigenvalues not converged
     c_bands:  5 eigenvalues not converged
     c_bands:  3 eigenvalues not converged
     c_bands:  3 eigenvalues not converged
     ethr =  1.94E-05,  avg # of iterations = 14.6

     total cpu time spent up to now is      261.2 secs

     total energy              =    -517.48292432 Ry
     estimated scf accuracy    <       0.05012644 Ry

     total magnetization       =     1.58 Bohr mag/cell
     absolute magnetization    =     1.61 Bohr mag/cell

     iteration # 10     ecut=    93.00 Ry     beta= 0.50
     Davidson diagonalization with overlap

---- Real-time Memory Report at c_bands before calling an iterative solver
           114 MiB given to the printing process from OS
             0 MiB allocation reported by mallinfo(arena+hblkhd)
          9427 MiB available memory on the node where the printing process lives
------------------
     c_bands:  3 eigenvalues not converged
     c_bands:  2 eigenvalues not converged
     c_bands:  1 eigenvalues not converged
     c_bands:  1 eigenvalues not converged
     c_bands:  1 eigenvalues not converged
     c_bands:  2 eigenvalues not converged
     c_bands:  2 eigenvalues not converged
     c_bands:  1 eigenvalues not converged
     c_bands:  2 eigenvalues not converged
     c_bands:  2 eigenvalues not converged
     c_bands:  1 eigenvalues not converged
     ethr =  1.94E-05,  avg # of iterations =  5.3

     total cpu time spent up to now is      276.3 secs

     total energy              =    -517.48218663 Ry
     estimated scf accuracy    <       0.02303137 Ry

     total magnetization       =     1.50 Bohr mag/cell
     absolute magnetization    =     1.53 Bohr mag/cell

     iteration # 11     ecut=    93.00 Ry     beta= 0.50
     Davidson diagonalization with overlap

---- Real-time Memory Report at c_bands before calling an iterative solver
           115 MiB given to the printing process from OS
             0 MiB allocation reported by mallinfo(arena+hblkhd)
          9423 MiB available memory on the node where the printing process lives
------------------
     c_bands:  1 eigenvalues not converged
     c_bands:  1 eigenvalues not converged
     c_bands:  3 eigenvalues not converged
     ethr =  1.94E-05,  avg # of iterations =  9.7

     total cpu time spent up to now is      296.2 secs

     total energy              =    -517.48381165 Ry
     estimated scf accuracy    <       0.00008499 Ry

     total magnetization       =     1.43 Bohr mag/cell
     absolute magnetization    =     1.46 Bohr mag/cell

     iteration # 12     ecut=    93.00 Ry     beta= 0.50
     Davidson diagonalization with overlap

---- Real-time Memory Report at c_bands before calling an iterative solver
           115 MiB given to the printing process from OS
             0 MiB allocation reported by mallinfo(arena+hblkhd)
          9438 MiB available memory on the node where the printing process lives
------------------
     c_bands:  3 eigenvalues not converged
     c_bands:  4 eigenvalues not converged
     c_bands:  3 eigenvalues not converged
     c_bands:  2 eigenvalues not converged
     c_bands:  3 eigenvalues not converged
     c_bands:  3 eigenvalues not converged
     c_bands:  5 eigenvalues not converged
     c_bands:  4 eigenvalues not converged
     c_bands:  4 eigenvalues not converged
     c_bands:  4 eigenvalues not converged
     c_bands:  3 eigenvalues not converged
     c_bands:  3 eigenvalues not converged
     c_bands:  5 eigenvalues not converged
     c_bands:  5 eigenvalues not converged
     c_bands:  4 eigenvalues not converged
     c_bands:  5 eigenvalues not converged
     c_bands:  4 eigenvalues not converged
     c_bands:  5 eigenvalues not converged
     c_bands:  4 eigenvalues not converged
     c_bands:  3 eigenvalues not converged
     c_bands:  4 eigenvalues not converged
     c_bands:  3 eigenvalues not converged
     c_bands:  5 eigenvalues not converged
     c_bands:  5 eigenvalues not converged
     c_bands:  2 eigenvalues not converged
     c_bands:  4 eigenvalues not converged
     c_bands:  3 eigenvalues not converged
     c_bands:  2 eigenvalues not converged
     c_bands:  5 eigenvalues not converged
     c_bands:  5 eigenvalues not converged
     c_bands:  3 eigenvalues not converged
     c_bands:  4 eigenvalues not converged
     c_bands:  5 eigenvalues not converged
     c_bands:  5 eigenvalues not converged
     c_bands:  4 eigenvalues not converged
     c_bands:  5 eigenvalues not converged
     c_bands:  4 eigenvalues not converged
     c_bands:  2 eigenvalues not converged
     c_bands:  4 eigenvalues not converged
     c_bands:  4 eigenvalues not converged
     c_bands:  3 eigenvalues not converged
     c_bands:  5 eigenvalues not converged
     c_bands:  5 eigenvalues not converged
     c_bands:  5 eigenvalues not converged
     c_bands:  5 eigenvalues not converged
     c_bands:  3 eigenvalues not converged
     c_bands:  2 eigenvalues not converged
     c_bands:  3 eigenvalues not converged
     c_bands:  1 eigenvalues not converged
     c_bands:  4 eigenvalues not converged
     c_bands:  4 eigenvalues not converged
     c_bands:  5 eigenvalues not converged
     c_bands:  2 eigenvalues not converged
     c_bands:  3 eigenvalues not converged
     c_bands:  3 eigenvalues not converged
     c_bands:  5 eigenvalues not converged
     c_bands:  1 eigenvalues not converged
     c_bands:  3 eigenvalues not converged
     c_bands:  4 eigenvalues not converged
     c_bands:  1 eigenvalues not converged
     c_bands:  3 eigenvalues not converged
     c_bands:  2 eigenvalues not converged
     c_bands:  5 eigenvalues not converged
     c_bands:  5 eigenvalues not converged
     c_bands:  4 eigenvalues not converged
     c_bands:  4 eigenvalues not converged
     c_bands:  4 eigenvalues not converged
     c_bands:  4 eigenvalues not converged
     c_bands:  4 eigenvalues not converged
     c_bands:  5 eigenvalues not converged
     c_bands:  1 eigenvalues not converged
     c_bands:  1 eigenvalues not converged
     c_bands:  3 eigenvalues not converged
     c_bands:  3 eigenvalues not converged
     c_bands:  5 eigenvalues not converged
     c_bands:  5 eigenvalues not converged
     c_bands:  2 eigenvalues not converged
     c_bands:  5 eigenvalues not converged
     c_bands:  5 eigenvalues not converged
     c_bands:  4 eigenvalues not converged
     c_bands:  5 eigenvalues not converged
     c_bands:  4 eigenvalues not converged
     c_bands:  5 eigenvalues not converged
     c_bands:  2 eigenvalues not converged
     c_bands:  4 eigenvalues not converged
     c_bands:  4 eigenvalues not converged
     c_bands:  3 eigenvalues not converged
     c_bands:  4 eigenvalues not converged
     c_bands:  5 eigenvalues not converged
     c_bands:  4 eigenvalues not converged
     c_bands:  4 eigenvalues not converged
     c_bands:  3 eigenvalues not converged
     c_bands:  5 eigenvalues not converged
     c_bands:  4 eigenvalues not converged
     c_bands:  3 eigenvalues not converged
     c_bands:  5 eigenvalues not converged
     c_bands:  5 eigenvalues not converged
     ethr =  1.52E-07,  avg # of iterations = 22.6

     total cpu time spent up to now is      350.8 secs

     total energy              =    -517.48455498 Ry
     estimated scf accuracy    <       0.00959636 Ry

     total magnetization       =     1.43 Bohr mag/cell
     absolute magnetization    =     1.46 Bohr mag/cell

     iteration # 13     ecut=    93.00 Ry     beta= 0.50
     Davidson diagonalization with overlap

---- Real-time Memory Report at c_bands before calling an iterative solver
           115 MiB given to the printing process from OS
             0 MiB allocation reported by mallinfo(arena+hblkhd)
          9440 MiB available memory on the node where the printing process lives
------------------
     c_bands:  4 eigenvalues not converged
     c_bands:  2 eigenvalues not converged
     c_bands:  3 eigenvalues not converged
     c_bands:  1 eigenvalues not converged
     c_bands:  3 eigenvalues not converged
     c_bands:  1 eigenvalues not converged
     c_bands:  2 eigenvalues not converged
     c_bands:  2 eigenvalues not converged
     c_bands:  2 eigenvalues not converged
     c_bands:  1 eigenvalues not converged
     c_bands:  3 eigenvalues not converged
     c_bands:  3 eigenvalues not converged
     c_bands:  2 eigenvalues not converged
     c_bands:  3 eigenvalues not converged
     c_bands:  3 eigenvalues not converged
     c_bands:  4 eigenvalues not converged
     c_bands:  3 eigenvalues not converged
     c_bands:  3 eigenvalues not converged
     c_bands:  2 eigenvalues not converged
     c_bands:  3 eigenvalues not converged
     c_bands:  2 eigenvalues not converged
     c_bands:  2 eigenvalues not converged
     c_bands:  2 eigenvalues not converged
     c_bands:  5 eigenvalues not converged
     c_bands:  2 eigenvalues not converged
     c_bands:  2 eigenvalues not converged
     c_bands:  2 eigenvalues not converged
     c_bands:  2 eigenvalues not converged
     c_bands:  3 eigenvalues not converged
     c_bands:  4 eigenvalues not converged
     c_bands:  2 eigenvalues not converged
     c_bands:  2 eigenvalues not converged
     c_bands:  2 eigenvalues not converged
     c_bands:  4 eigenvalues not converged
     c_bands:  1 eigenvalues not converged
     c_bands:  1 eigenvalues not converged
     c_bands:  3 eigenvalues not converged
     c_bands:  1 eigenvalues not converged
     c_bands:  5 eigenvalues not converged
     c_bands:  1 eigenvalues not converged
     c_bands:  4 eigenvalues not converged
     c_bands:  4 eigenvalues not converged
     c_bands:  3 eigenvalues not converged
     c_bands:  1 eigenvalues not converged
     c_bands:  1 eigenvalues not converged
     c_bands:  3 eigenvalues not converged
     c_bands:  2 eigenvalues not converged
     c_bands:  3 eigenvalues not converged
     c_bands:  2 eigenvalues not converged
     c_bands:  3 eigenvalues not converged
     c_bands:  2 eigenvalues not converged
     c_bands:  2 eigenvalues not converged
     c_bands:  1 eigenvalues not converged
     c_bands:  4 eigenvalues not converged
     c_bands:  1 eigenvalues not converged
     c_bands:  2 eigenvalues not converged
     c_bands:  4 eigenvalues not converged
     c_bands:  3 eigenvalues not converged
     c_bands:  4 eigenvalues not converged
     c_bands:  3 eigenvalues not converged
     c_bands:  4 eigenvalues not converged
     c_bands:  1 eigenvalues not converged
     c_bands:  3 eigenvalues not converged
     c_bands:  4 eigenvalues not converged
     c_bands:  1 eigenvalues not converged
     c_bands:  2 eigenvalues not converged
     c_bands:  2 eigenvalues not converged
     c_bands:  4 eigenvalues not converged
     c_bands:  3 eigenvalues not converged
     c_bands:  2 eigenvalues not converged
     c_bands:  2 eigenvalues not converged
     c_bands:  3 eigenvalues not converged
     c_bands:  4 eigenvalues not converged
     c_bands:  4 eigenvalues not converged
     c_bands:  4 eigenvalues not converged
     c_bands:  3 eigenvalues not converged
     c_bands:  2 eigenvalues not converged
     c_bands:  3 eigenvalues not converged
     c_bands:  3 eigenvalues not converged
     c_bands:  2 eigenvalues not converged
     c_bands:  4 eigenvalues not converged
     c_bands:  3 eigenvalues not converged
     c_bands:  1 eigenvalues not converged
     c_bands:  2 eigenvalues not converged
     c_bands:  1 eigenvalues not converged
     c_bands:  1 eigenvalues not converged
     c_bands:  3 eigenvalues not converged
     c_bands:  1 eigenvalues not converged
     c_bands:  1 eigenvalues not converged
     c_bands:  2 eigenvalues not converged
     c_bands:  1 eigenvalues not converged
     ethr =  1.52E-07,  avg # of iterations = 19.2

     total cpu time spent up to now is      392.7 secs

     total energy              =    -517.48493177 Ry
     estimated scf accuracy    <       0.00007487 Ry

     total magnetization       =     1.46 Bohr mag/cell
     absolute magnetization    =     1.49 Bohr mag/cell

     iteration # 14     ecut=    93.00 Ry     beta= 0.50
     Davidson diagonalization with overlap

---- Real-time Memory Report at c_bands before calling an iterative solver
           115 MiB given to the printing process from OS
             0 MiB allocation reported by mallinfo(arena+hblkhd)
          9428 MiB available memory on the node where the printing process lives
------------------
     c_bands:  1 eigenvalues not converged
     c_bands:  2 eigenvalues not converged
     c_bands:  1 eigenvalues not converged
     c_bands:  1 eigenvalues not converged
     c_bands:  1 eigenvalues not converged
     c_bands:  2 eigenvalues not converged
     c_bands:  2 eigenvalues not converged
     c_bands:  1 eigenvalues not converged
     c_bands:  2 eigenvalues not converged
     c_bands:  2 eigenvalues not converged
     c_bands:  2 eigenvalues not converged
     c_bands:  1 eigenvalues not converged
     c_bands:  2 eigenvalues not converged
     c_bands:  3 eigenvalues not converged
     c_bands:  4 eigenvalues not converged
     c_bands:  4 eigenvalues not converged
     c_bands:  2 eigenvalues not converged
     c_bands:  2 eigenvalues not converged
     c_bands:  1 eigenvalues not converged
     c_bands:  1 eigenvalues not converged
     c_bands:  2 eigenvalues not converged
     c_bands:  1 eigenvalues not converged
     c_bands:  1 eigenvalues not converged
     c_bands:  2 eigenvalues not converged
     c_bands:  2 eigenvalues not converged
     c_bands:  2 eigenvalues not converged
     c_bands:  3 eigenvalues not converged
     c_bands:  4 eigenvalues not converged
     c_bands:  1 eigenvalues not converged
     c_bands:  3 eigenvalues not converged
     c_bands:  4 eigenvalues not converged
     c_bands:  1 eigenvalues not converged
     c_bands:  2 eigenvalues not converged
     c_bands:  2 eigenvalues not converged
     c_bands:  2 eigenvalues not converged
     c_bands:  1 eigenvalues not converged
     c_bands:  1 eigenvalues not converged
     c_bands:  2 eigenvalues not converged
     c_bands:  2 eigenvalues not converged
     c_bands:  1 eigenvalues not converged
     c_bands:  1 eigenvalues not converged
     c_bands:  2 eigenvalues not converged
     c_bands:  3 eigenvalues not converged
     c_bands:  3 eigenvalues not converged
     c_bands:  4 eigenvalues not converged
     c_bands:  1 eigenvalues not converged
     c_bands:  3 eigenvalues not converged
     c_bands:  3 eigenvalues not converged
     c_bands:  2 eigenvalues not converged
     c_bands:  1 eigenvalues not converged
     c_bands:  3 eigenvalues not converged
     c_bands:  1 eigenvalues not converged
     c_bands:  1 eigenvalues not converged
     c_bands:  1 eigenvalues not converged
     c_bands:  2 eigenvalues not converged
     c_bands:  2 eigenvalues not converged
     c_bands:  2 eigenvalues not converged
     c_bands:  2 eigenvalues not converged
     c_bands:  4 eigenvalues not converged
     c_bands:  1 eigenvalues not converged
     c_bands:  2 eigenvalues not converged
     c_bands:  1 eigenvalues not converged
     c_bands:  3 eigenvalues not converged
     c_bands:  1 eigenvalues not converged
     c_bands:  2 eigenvalues not converged
     c_bands:  3 eigenvalues not converged
     ethr =  1.34E-07,  avg # of iterations = 16.8

     total cpu time spent up to now is      425.2 secs

     total energy              =    -517.48468833 Ry
     estimated scf accuracy    <       0.00176594 Ry

     total magnetization       =     1.41 Bohr mag/cell
     absolute magnetization    =     1.44 Bohr mag/cell

     iteration # 15     ecut=    93.00 Ry     beta= 0.50
     Davidson diagonalization with overlap

---- Real-time Memory Report at c_bands before calling an iterative solver
           116 MiB given to the printing process from OS
             0 MiB allocation reported by mallinfo(arena+hblkhd)
          9421 MiB available memory on the node where the printing process lives
------------------
     c_bands:  4 eigenvalues not converged
     c_bands:  4 eigenvalues not converged
     c_bands:  5 eigenvalues not converged
     c_bands:  4 eigenvalues not converged
     c_bands:  3 eigenvalues not converged
     c_bands:  2 eigenvalues not converged
     c_bands:  5 eigenvalues not converged
     c_bands:  1 eigenvalues not converged
     c_bands:  3 eigenvalues not converged
     c_bands:  2 eigenvalues not converged
     c_bands:  4 eigenvalues not converged
     c_bands:  4 eigenvalues not converged
     c_bands:  3 eigenvalues not converged
     c_bands:  3 eigenvalues not converged
     c_bands:  1 eigenvalues not converged
     c_bands:  4 eigenvalues not converged
     c_bands:  4 eigenvalues not converged
     c_bands:  4 eigenvalues not converged
     c_bands:  2 eigenvalues not converged
     c_bands:  5 eigenvalues not converged
     c_bands:  2 eigenvalues not converged
     c_bands:  3 eigenvalues not converged
     c_bands:  2 eigenvalues not converged
     c_bands:  5 eigenvalues not converged
     c_bands:  4 eigenvalues not converged
     c_bands:  3 eigenvalues not converged
     c_bands:  5 eigenvalues not converged
     c_bands:  5 eigenvalues not converged
     c_bands:  4 eigenvalues not converged
     c_bands:  4 eigenvalues not converged
     c_bands:  5 eigenvalues not converged
     c_bands:  4 eigenvalues not converged
     c_bands:  4 eigenvalues not converged
     c_bands:  2 eigenvalues not converged
     c_bands:  4 eigenvalues not converged
     c_bands:  4 eigenvalues not converged
     c_bands:  3 eigenvalues not converged
     c_bands:  4 eigenvalues not converged
     c_bands:  2 eigenvalues not converged
     c_bands:  3 eigenvalues not converged
     c_bands:  5 eigenvalues not converged
     c_bands:  5 eigenvalues not converged
     c_bands:  3 eigenvalues not converged
     c_bands:  4 eigenvalues not converged
     c_bands:  4 eigenvalues not converged
     c_bands:  4 eigenvalues not converged
     c_bands:  4 eigenvalues not converged
     c_bands:  3 eigenvalues not converged
     c_bands:  2 eigenvalues not converged
     c_bands:  2 eigenvalues not converged
     c_bands:  5 eigenvalues not converged
     c_bands:  3 eigenvalues not converged
     c_bands:  2 eigenvalues not converged
     c_bands:  5 eigenvalues not converged
     c_bands:  4 eigenvalues not converged
     c_bands:  5 eigenvalues not converged
     c_bands:  2 eigenvalues not converged
     c_bands:  5 eigenvalues not converged
     c_bands:  5 eigenvalues not converged
     c_bands:  4 eigenvalues not converged
     c_bands:  4 eigenvalues not converged
     c_bands:  4 eigenvalues not converged
     c_bands:  5 eigenvalues not converged
     c_bands:  2 eigenvalues not converged
     c_bands:  3 eigenvalues not converged
     c_bands:  1 eigenvalues not converged
     c_bands:  4 eigenvalues not converged
     c_bands:  4 eigenvalues not converged
     c_bands:  1 eigenvalues not converged
     c_bands:  5 eigenvalues not converged
     c_bands:  4 eigenvalues not converged
     c_bands:  5 eigenvalues not converged
     c_bands:  4 eigenvalues not converged
     c_bands:  3 eigenvalues not converged
     c_bands:  5 eigenvalues not converged
     c_bands:  5 eigenvalues not converged
     c_bands:  4 eigenvalues not converged
     c_bands:  4 eigenvalues not converged
     c_bands:  4 eigenvalues not converged
     c_bands:  4 eigenvalues not converged
     c_bands:  3 eigenvalues not converged
     c_bands:  4 eigenvalues not converged
     c_bands:  4 eigenvalues not converged
     c_bands:  4 eigenvalues not converged
     c_bands:  3 eigenvalues not converged
     c_bands:  5 eigenvalues not converged
     c_bands:  3 eigenvalues not converged
     c_bands:  3 eigenvalues not converged
     c_bands:  4 eigenvalues not converged
     c_bands:  1 eigenvalues not converged
     c_bands:  4 eigenvalues not converged
     c_bands:  1 eigenvalues not converged
     c_bands:  1 eigenvalues not converged
     ethr =  1.34E-07,  avg # of iterations = 21.9

     total cpu time spent up to now is      476.3 secs

     total energy              =    -517.48548105 Ry
     estimated scf accuracy    <       0.01052953 Ry

     total magnetization       =     1.40 Bohr mag/cell
     absolute magnetization    =     1.43 Bohr mag/cell

     iteration # 16     ecut=    93.00 Ry     beta= 0.50
     Davidson diagonalization with overlap

---- Real-time Memory Report at c_bands before calling an iterative solver
           116 MiB given to the printing process from OS
             0 MiB allocation reported by mallinfo(arena+hblkhd)
          9430 MiB available memory on the node where the printing process lives
------------------
     c_bands:  2 eigenvalues not converged
     c_bands:  2 eigenvalues not converged
     c_bands:  1 eigenvalues not converged
     c_bands:  2 eigenvalues not converged
     c_bands:  2 eigenvalues not converged
     c_bands:  1 eigenvalues not converged
     c_bands:  2 eigenvalues not converged
     c_bands:  3 eigenvalues not converged
     c_bands:  1 eigenvalues not converged
     c_bands:  2 eigenvalues not converged
     c_bands:  2 eigenvalues not converged
     c_bands:  2 eigenvalues not converged
     c_bands:  3 eigenvalues not converged
     c_bands:  2 eigenvalues not converged
     c_bands:  2 eigenvalues not converged
     c_bands:  1 eigenvalues not converged
     c_bands:  1 eigenvalues not converged
     c_bands:  3 eigenvalues not converged
     c_bands:  1 eigenvalues not converged
     c_bands:  2 eigenvalues not converged
     c_bands:  1 eigenvalues not converged
     c_bands:  2 eigenvalues not converged
     c_bands:  2 eigenvalues not converged
     c_bands:  2 eigenvalues not converged
     c_bands:  3 eigenvalues not converged
     c_bands:  3 eigenvalues not converged
     c_bands:  2 eigenvalues not converged
     c_bands:  1 eigenvalues not converged
     c_bands:  2 eigenvalues not converged
     c_bands:  2 eigenvalues not converged
     c_bands:  2 eigenvalues not converged
     c_bands:  1 eigenvalues not converged
     c_bands:  2 eigenvalues not converged
     c_bands:  3 eigenvalues not converged
     c_bands:  3 eigenvalues not converged
     c_bands:  1 eigenvalues not converged
     c_bands:  1 eigenvalues not converged
     c_bands:  2 eigenvalues not converged
     c_bands:  1 eigenvalues not converged
     c_bands:  3 eigenvalues not converged
     c_bands:  1 eigenvalues not converged
     c_bands:  1 eigenvalues not converged
     c_bands:  1 eigenvalues not converged
     c_bands:  3 eigenvalues not converged
     c_bands:  2 eigenvalues not converged
     c_bands:  3 eigenvalues not converged
     c_bands:  2 eigenvalues not converged
     c_bands:  4 eigenvalues not converged
     c_bands:  1 eigenvalues not converged
     c_bands:  1 eigenvalues not converged
     c_bands:  2 eigenvalues not converged
     c_bands:  1 eigenvalues not converged
     ethr =  1.34E-07,  avg # of iterations = 14.0

     total cpu time spent up to now is      498.9 secs

     total energy              =    -517.48525311 Ry
     estimated scf accuracy    <       0.01324372 Ry

     total magnetization       =     1.40 Bohr mag/cell
     absolute magnetization    =     1.43 Bohr mag/cell

     iteration # 17     ecut=    93.00 Ry     beta= 0.50
     Davidson diagonalization with overlap

---- Real-time Memory Report at c_bands before calling an iterative solver
           116 MiB given to the printing process from OS
             0 MiB allocation reported by mallinfo(arena+hblkhd)
          9425 MiB available memory on the node where the printing process lives
------------------
     c_bands:  2 eigenvalues not converged
     c_bands:  1 eigenvalues not converged
     c_bands:  1 eigenvalues not converged
     c_bands:  1 eigenvalues not converged
     c_bands:  2 eigenvalues not converged
     c_bands:  1 eigenvalues not converged
     c_bands:  2 eigenvalues not converged
     c_bands:  1 eigenvalues not converged
     c_bands:  2 eigenvalues not converged
     c_bands:  1 eigenvalues not converged
     c_bands:  2 eigenvalues not converged
     c_bands:  1 eigenvalues not converged
     c_bands:  1 eigenvalues not converged
     c_bands:  2 eigenvalues not converged
     c_bands:  1 eigenvalues not converged
     c_bands:  1 eigenvalues not converged
     c_bands:  1 eigenvalues not converged
     c_bands:  2 eigenvalues not converged
     c_bands:  2 eigenvalues not converged
     c_bands:  2 eigenvalues not converged
     c_bands:  2 eigenvalues not converged
     c_bands:  1 eigenvalues not converged
     c_bands:  1 eigenvalues not converged
     c_bands:  1 eigenvalues not converged
     c_bands:  2 eigenvalues not converged
     c_bands:  1 eigenvalues not converged
     c_bands:  2 eigenvalues not converged
     c_bands:  1 eigenvalues not converged
     c_bands:  3 eigenvalues not converged
     c_bands:  1 eigenvalues not converged
     c_bands:  1 eigenvalues not converged
     c_bands:  1 eigenvalues not converged
     ethr =  1.34E-07,  avg # of iterations = 12.4

     total cpu time spent up to now is      521.1 secs

     total energy              =    -517.48527707 Ry
     estimated scf accuracy    <       0.00939692 Ry

     total magnetization       =     1.39 Bohr mag/cell
     absolute magnetization    =     1.43 Bohr mag/cell

     iteration # 18     ecut=    93.00 Ry     beta= 0.50
     Davidson diagonalization with overlap

---- Real-time Memory Report at c_bands before calling an iterative solver
           116 MiB given to the printing process from OS
             0 MiB allocation reported by mallinfo(arena+hblkhd)
          9431 MiB available memory on the node where the printing process lives
------------------
     c_bands:  2 eigenvalues not converged
     c_bands:  1 eigenvalues not converged
     c_bands:  1 eigenvalues not converged
     c_bands:  1 eigenvalues not converged
     c_bands:  2 eigenvalues not converged
     c_bands:  1 eigenvalues not converged
     c_bands:  2 eigenvalues not converged
     c_bands:  2 eigenvalues not converged
     c_bands:  1 eigenvalues not converged
     c_bands:  1 eigenvalues not converged
     c_bands:  2 eigenvalues not converged
     c_bands:  1 eigenvalues not converged
     c_bands:  2 eigenvalues not converged
     c_bands:  2 eigenvalues not converged
     c_bands:  2 eigenvalues not converged
     c_bands:  1 eigenvalues not converged
     c_bands:  1 eigenvalues not converged
     c_bands:  1 eigenvalues not converged
     c_bands:  2 eigenvalues not converged
     c_bands:  2 eigenvalues not converged
     c_bands:  1 eigenvalues not converged
     c_bands:  1 eigenvalues not converged
     ethr =  1.34E-07,  avg # of iterations =  5.2

     total cpu time spent up to now is      535.9 secs

     total energy              =    -517.48542232 Ry
     estimated scf accuracy    <       0.00926697 Ry

     total magnetization       =     1.37 Bohr mag/cell
     absolute magnetization    =     1.40 Bohr mag/cell

     iteration # 19     ecut=    93.00 Ry     beta= 0.50
     Davidson diagonalization with overlap

---- Real-time Memory Report at c_bands before calling an iterative solver
           116 MiB given to the printing process from OS
             0 MiB allocation reported by mallinfo(arena+hblkhd)
          9436 MiB available memory on the node where the printing process lives
------------------
     c_bands:  2 eigenvalues not converged
     c_bands:  1 eigenvalues not converged
     c_bands:  2 eigenvalues not converged
[...]
    22.6901  22.7833  22.8333  23.0087  23.4764  23.4986  23.5967  23.5982

     occupation numbers 
     1.0000   1.0000   1.0000   1.0000   1.0000   1.0000   1.0000   1.0000
     1.0000   1.0000   1.0000   1.0000   1.0000   1.0000   1.0000   1.0000
     1.0000   1.0000   1.0000   1.0000   1.0706   1.0706   1.0833   1.0185
     1.0184   0.9649   0.9292   0.7706   0.2851   0.2666   0.1938   0.1928

          k = 0.2000 0.3000 0.4000 (  8911 PWs)   bands (ev):

   -20.3151 -20.1345 -20.0375 -20.0076   2.3688   2.3987   2.5911   3.1343
     4.2561   4.5128   5.0834   5.4196   5.4388   5.5712   5.7586   6.1020
    20.3779  20.5832  20.6798  20.9243  21.8744  21.9724  22.1968  22.3120
    22.6851  22.9252  22.9934  23.1411  23.4830  23.5468  23.5783  23.6412

     occupation numbers 
     1.0000   1.0000   1.0000   1.0000   1.0000   1.0000   1.0000   1.0000
     1.0000   1.0000   1.0000   1.0000   1.0000   1.0000   1.0000   1.0000
     1.0000   1.0000   1.0000   1.0001   1.0275   1.0388   1.0688   1.0805
     1.0208   0.8519   0.7861   0.6284   0.2795   0.2290   0.2063   0.1656

          k = 0.2000 0.3000-0.5000 (  8902 PWs)   bands (ev):

   -20.2265 -20.2240 -20.0234 -20.0208   2.3513   2.3521   2.8061   2.8061
     4.3826   4.3844   5.4587   5.4594   5.4648   5.4658   5.8488   5.8497
    20.6408  20.6415  21.1015  21.1018  21.7052  21.7052  21.9570  21.9570
    22.8290  22.8305  23.1640  23.1652  23.5026  23.5060  23.6421  23.6425

     occupation numbers 
     1.0000   1.0000   1.0000   1.0000   1.0000   1.0000   1.0000   1.0000
     1.0000   1.0000   1.0000   1.0000   1.0000   1.0000   1.0000   1.0000
     1.0000   1.0000   1.0003   1.0003   1.0135   1.0135   1.0368   1.0369
     0.9325   0.9313   0.6030   0.6017   0.2633   0.2606   0.1650   0.1648

          k = 0.2000 0.4000 0.4000 (  8889 PWs)   bands (ev):

   -20.2495 -20.1048 -20.1022 -20.0367   2.2820   2.3993   2.4002   2.7841
     4.4717   4.9079   4.9092   5.5239   5.6203   5.6833   5.6850   6.0946
    20.4744  20.7091  21.0578  21.0579  21.5514  21.5514  22.0171  22.0402
    23.0348  23.0357  23.2329  23.3028  23.4464  23.4889  23.5729  23.5742

     occupation numbers 
     1.0000   1.0000   1.0000   1.0000   1.0000   1.0000   1.0000   1.0000
     1.0000   1.0000   1.0000   1.0000   1.0000   1.0000   1.0000   1.0000
     1.0000   1.0000   1.0002   1.0002   1.0062   1.0062   1.0446   1.0477
     0.7436   0.7427   0.5269   0.4517   0.3112   0.2746   0.2101   0.2092

          k = 0.2000 0.4000-0.5000 (  8916 PWs)   bands (ev):

   -20.1778 -20.1754 -20.0711 -20.0685   2.2912   2.2918   2.5316   2.5318
     4.6947   4.6963   5.2407   5.2420   5.7068   5.7072   5.9371   5.9375
    20.7534  20.7539  21.0264  21.0265  21.6095  21.6098  21.7533  21.7535
    23.1634  23.1651  23.2529  23.2538  23.4957  23.4989  23.5322  23.5335

     occupation numbers 
     1.0000   1.0000   1.0000   1.0000   1.0000   1.0000   1.0000   1.0000
     1.0000   1.0000   1.0000   1.0000   1.0000   1.0000   1.0000   1.0000
     1.0000   1.0000   1.0002   1.0002   1.0084   1.0084   1.0167   1.0167
     0.6037   0.6018   0.5051   0.5041   0.2689   0.2663   0.2400   0.2390

          k = 0.2000-0.5000-0.5000 (  8892 PWs)   bands (ev):

   -20.1243 -20.1243 -20.1243 -20.1192   2.3527   2.3535   2.3540   2.3540
     4.9804   4.9808   4.9808   4.9833   5.8834   5.8835   5.8854   5.8854
    20.9001  20.9001  20.9005  20.9010  21.6305  21.6312  21.6312  21.6312
    23.3094  23.3109  23.3123  23.3123  23.4435  23.4457  23.4457  23.4494

     occupation numbers 
     1.0000   1.0000   1.0000   1.0000   1.0000   1.0000   1.0000   1.0000
     1.0000   1.0000   1.0000   1.0000   1.0000   1.0000   1.0000   1.0000
     1.0001   1.0001   1.0001   1.0001   1.0094   1.0094   1.0094   1.0094
     0.4447   0.4432   0.4418   0.4418   0.3138   0.3118   0.3118   0.3085

          k = 0.3000 0.3000 0.3000 (  8898 PWs)   bands (ev):

   -20.3412 -20.0517 -20.0517 -20.0478   2.3070   2.3082   2.3082   3.1129
     4.7369   4.7369   4.7397   5.4578   5.4593   5.4593   6.1036   6.1036
    19.9738  20.4679  20.4681  20.4681  22.1983  22.1985  22.1985  22.3850
    22.8932  22.8937  22.8937  23.5341  23.5341  23.5442  23.5463  23.5503

     occupation numbers 
     1.0000   1.0000   1.0000   1.0000   1.0000   1.0000   1.0000   1.0000
     1.0000   1.0000   1.0000   1.0000   1.0000   1.0000   1.0000   1.0000
     1.0000   1.0000   1.0000   1.0000   1.0690   1.0691   1.0691   1.0833
     0.8804   0.8800   0.8800   0.2385   0.2385   0.2309   0.2294   0.2264

          k = 0.3000 0.3000 0.4000 (  8912 PWs)   bands (ev):

   -20.2726 -20.1197 -20.0504 -20.0478   2.1712   2.1720   2.3164   2.7361
     4.8120   4.8139   5.2813   5.5516   5.5525   5.6069   5.9457   6.0184
    20.0354  20.5594  20.7444  20.7445  21.7569  21.7571  21.8352  22.2103
    23.0131  23.1783  23.1786  23.3480  23.5097  23.5120  23.5749  23.5791

     occupation numbers 
     1.0000   1.0000   1.0000   1.0000   1.0000   1.0000   1.0000   1.0000
     1.0000   1.0000   1.0000   1.0000   1.0000   1.0000   1.0000   1.0000
     1.0000   1.0000   1.0000   1.0000   1.0170   1.0170   1.0236   1.0705
     0.7661   0.5871   0.5868   0.4051   0.2577   0.2558   0.2087   0.2057

          k = 0.3000 0.3000-0.5000 (  8936 PWs)   bands (ev):

   -20.1976 -20.1951 -20.0499 -20.0474   2.1227   2.1234   2.4628   2.4630
     4.8374   4.8393   5.5867   5.5875   5.7295   5.7298   5.7735   5.7754
    20.3117  20.3124  21.1110  21.1111  21.3203  21.3206  21.9398  21.9399
    23.1655  23.1675  23.2695  23.2707  23.4999  23.5033  23.5898  23.5901

     occupation numbers 
     1.0000   1.0000   1.0000   1.0000   1.0000   1.0000   1.0000   1.0000
     1.0000   1.0000   1.0000   1.0000   1.0000   1.0000   1.0000   1.0000
     1.0000   1.0000   1.0004   1.0004   1.0016   1.0016   1.0348   1.0348
     0.6014   0.5991   0.4871   0.4859   0.2655   0.2628   0.1984   0.1982

          k = 0.3000 0.4000 0.4000 (  8915 PWs)   bands (ev):

   -20.2193 -20.1030 -20.1005 -20.0645   2.0363   2.1129   2.1137   2.4099
     5.0388   5.2894   5.2907   5.6858   5.7095   5.7111   5.8258   6.0306
    19.9774  20.5748  20.5751  20.6639  21.6172  21.6348  21.6350  22.1094
    23.2534  23.2544  23.3364  23.4736  23.4768  23.4941  23.5310  23.5325

     occupation numbers 
     1.0000   1.0000   1.0000   1.0000   1.0000   1.0000   1.0000   1.0000
     1.0000   1.0000   1.0000   1.0000   1.0000   1.0000   1.0000   1.0000
     1.0000   1.0000   1.0000   1.0000   1.0088   1.0096   1.0096   1.0572
     0.5045   0.5034   0.4168   0.2875   0.2848   0.2702   0.2409   0.2398

          k = 0.3000 0.4000-0.5000 (  8920 PWs)   bands (ev):

   -20.1616 -20.1591 -20.0840 -20.0813   2.0154   2.0161   2.1953   2.1957
     5.1943   5.1961   5.6185   5.6194   5.7516   5.7522   5.9023   5.9029
    20.1942  20.1948  20.6310  20.6313  21.5408  21.5411  21.8773  21.8775
    23.3551  23.3557  23.3581  23.3609  23.4898  23.4930  23.5258  23.5263

     occupation numbers 
     1.0000   1.0000   1.0000   1.0000   1.0000   1.0000   1.0000   1.0000
     1.0000   1.0000   1.0000   1.0000   1.0000   1.0000   1.0000   1.0000
     1.0000   1.0000   1.0000   1.0000   1.0059   1.0059   1.0278   1.0278
     0.3979   0.3973   0.3949   0.3921   0.2739   0.2712   0.2449   0.2445

          k = 0.3000-0.5000-0.5000 (  8900 PWs)   bands (ev):

   -20.1224 -20.1224 -20.1224 -20.1173   2.0400   2.0411   2.0413   2.0413
     5.4419   5.4424   5.4424   5.4445   5.8869   5.8870   5.8889   5.8889
    20.3068  20.3068  20.3069  20.3077  21.7426  21.7432  21.7432  21.7433
    23.4245  23.4264  23.4281  23.4281  23.4603  23.4629  23.4629  23.4657

     occupation numbers 
     1.0000   1.0000   1.0000   1.0000   1.0000   1.0000   1.0000   1.0000
     1.0000   1.0000   1.0000   1.0000   1.0000   1.0000   1.0000   1.0000
     1.0000   1.0000   1.0000   1.0000   1.0160   1.0160   1.0160   1.0160
     0.3311   0.3293   0.3277   0.3277   0.2989   0.2967   0.2967   0.2943

          k = 0.4000 0.4000 0.4000 (  8898 PWs)   bands (ev):

   -20.1817 -20.1016 -20.1016 -20.0977   1.9233   1.9243   1.9243   2.1210
     5.5213   5.5213   5.5238   5.7671   5.7686   5.7686   5.9495   5.9495
    19.7668  20.2469  20.2469  20.2475  21.7143  21.7147  21.7147  22.1112
    23.3817  23.3825  23.3825  23.4965  23.4965  23.4996  23.5022  23.5022

     occupation numbers 
     1.0000   1.0000   1.0000   1.0000   1.0000   1.0000   1.0000   1.0000
     1.0000   1.0000   1.0000   1.0000   1.0000   1.0000   1.0000   1.0000
     1.0000   1.0000   1.0000   1.0000   1.0140   1.0141   1.0141   1.0574
     0.3716   0.3708   0.3708   0.2683   0.2683   0.2658   0.2637   0.2637

          k = 0.4000 0.4000-0.5000 (  8902 PWs)   bands (ev):

   -20.1419 -20.1395 -20.1010 -20.0983   1.8580   1.8586   1.9532   1.9537
     5.5781   5.5800   5.8154   5.8161   5.8442   5.8449   5.8581   5.8600
    19.8739  19.8744  20.1315  20.1318  21.7469  21.7472  21.9587  21.9590
    23.4217  23.4223  23.4425  23.4456  23.4828  23.4860  23.5050  23.5053

     occupation numbers 
     1.0000   1.0000   1.0000   1.0000   1.0000   1.0000   1.0000   1.0000
     1.0000   1.0000   1.0000   1.0000   1.0000   1.0000   1.0000   1.0000
     1.0000   1.0000   1.0000   1.0000   1.0163   1.0163   1.0371   1.0371
     0.3336   0.3330   0.3147   0.3119   0.2797   0.2770   0.2614   0.2612

          k = 0.4000-0.5000-0.5000 (  8940 PWs)   bands (ev):

   -20.1209 -20.1209 -20.1209 -20.1158   1.8362   1.8373   1.8373   1.8373
     5.7713   5.7719   5.7719   5.7739   5.8897   5.8898   5.8917   5.8917
    19.8535  19.8535  19.8535  19.8544  21.9172  21.9179  21.9179  21.9179
    23.4660  23.4681  23.4698  23.4698  23.4717  23.4747  23.4747  23.4767

     occupation numbers 
     1.0000   1.0000   1.0000   1.0000   1.0000   1.0000   1.0000   1.0000
     1.0000   1.0000   1.0000   1.0000   1.0000   1.0000   1.0000   1.0000
     1.0000   1.0000   1.0000   1.0000   1.0321   1.0322   1.0322   1.0322
     0.2940   0.2922   0.2907   0.2907   0.2891   0.2865   0.2865   0.2848

          k =-0.5000-0.5000-0.5000 (  9008 PWs)   bands (ev):

   -20.1204 -20.1204 -20.1204 -20.1153   1.7659   1.7671   1.7671   1.7671
     5.8908   5.8908   5.8908   5.8909   5.8909   5.8934   5.8934   5.8934
    19.6894  19.6894  19.6894  19.6903  21.9958  21.9965  21.9965  21.9965
    23.4757  23.4757  23.4777  23.4777  23.4777  23.4806  23.4806  23.4806

     occupation numbers 
     1.0000   1.0000   1.0000   1.0000   1.0000   1.0000   1.0000   1.0000
     1.0000   1.0000   1.0000   1.0000   1.0000   1.0000   1.0000   1.0000
     1.0000   1.0000   1.0000   1.0000   1.0418   1.0419   1.0419   1.0419
     0.2857   0.2857   0.2840   0.2840   0.2840   0.2815   0.2815   0.2815

     the Fermi energy is    23.3524 ev

!    total energy              =    -517.48524480 Ry
     estimated scf accuracy    <          5.8E-09 Ry
     smearing contrib. (-TS)   =      -0.04564572 Ry
     internal energy E=F+TS    =    -517.43959908 Ry

     The total energy is F=E-TS. E is the sum of the following terms:
     one-electron contribution =      40.82022447 Ry
     hartree contribution      =      37.37539492 Ry
     xc contribution           =    -166.58008961 Ry
     ewald contribution        =    -429.05512886 Ry

     total magnetization       =     0.15 Bohr mag/cell
     absolute magnetization    =     0.15 Bohr mag/cell

     convergence has been achieved in  53 iterations

     Forces acting on atoms (cartesian axes, Ry/au):

     atom    1 type  1   force =     0.00000000    0.00000000    0.00000000
     atom    2 type  1   force =     0.00000000    0.00000000    0.00000000
     atom    3 type  1   force =     0.00000000    0.00000000    0.00000000
     atom    4 type  1   force =     0.00000000    0.00000000    0.00000000
     The non-local contrib.  to forces
     atom    1 type  1   force =     0.00000000    0.00000000    0.00000000
     atom    2 type  1   force =     0.00000000    0.00000000    0.00000000
     atom    3 type  1   force =     0.00000000    0.00000000    0.00000000
     atom    4 type  1   force =     0.00000000    0.00000000    0.00000000
     The ionic contribution  to forces
     atom    1 type  1   force =    -0.00000000   -0.00000000   -0.00000000
     atom    2 type  1   force =     0.00000000    0.00000000   -0.00000000
     atom    3 type  1   force =     0.00000000   -0.00000000    0.00000000
     atom    4 type  1   force =    -0.00000000    0.00000000    0.00000000
     The local contribution  to forces
     atom    1 type  1   force =     0.00000000    0.00000000   -0.00000000
     atom    2 type  1   force =     0.00000000    0.00000000   -0.00000000
     atom    3 type  1   force =     0.00000000    0.00000000    0.00000000
     atom    4 type  1   force =     0.00000000    0.00000000    0.00000000
     The core correction contribution to forces
     atom    1 type  1   force =     0.00000000    0.00000000    0.00000000
     atom    2 type  1   force =    -0.00000000   -0.00000000    0.00000000
     atom    3 type  1   force =    -0.00000000    0.00000000   -0.00000000
     atom    4 type  1   force =     0.00000000    0.00000000    0.00000000
     The Hubbard contrib.    to forces
     atom    1 type  1   force =     0.00000000    0.00000000    0.00000000
     atom    2 type  1   force =     0.00000000    0.00000000    0.00000000
     atom    3 type  1   force =     0.00000000    0.00000000    0.00000000
     atom    4 type  1   force =     0.00000000    0.00000000    0.00000000
     The SCF correction term to forces
     atom    1 type  1   force =     0.00000000   -0.00000000    0.00000000
     atom    2 type  1   force =     0.00000000    0.00000000    0.00000000
     atom    3 type  1   force =     0.00000000   -0.00000000    0.00000000
     atom    4 type  1   force =    -0.00000000   -0.00000000    0.00000000

     Total force =     0.000000     Total SCF correction =     0.000000


     Computing stress (Cartesian axis) and pressure

          total   stress  (Ry/bohr**3)                   (kbar)     P=       -3.20
  -0.00002176   0.00000000   0.00000000           -3.20        0.00        0.00
   0.00000000  -0.00002176   0.00000000            0.00       -3.20        0.00
   0.00000000   0.00000000  -0.00002176            0.00        0.00       -3.20

     kinetic stress (kbar)  31248.41      0.00      0.00
                                0.00  31248.41      0.00
                                0.00      0.00  31248.41

     local   stress (kbar)   8432.39     -0.00      0.00
                               -0.00   8432.39      0.00
                                0.00      0.00   8432.39

     nonloc. stress (kbar)   -497.09      0.00      0.00
                                0.00   -497.09      0.00
                                0.00      0.00   -497.09

     hartree stress (kbar)   3116.77     -0.00      0.00
                               -0.00   3116.77     -0.00
                                0.00     -0.00   3116.77

     exc-cor stress (kbar)  21052.86     -0.00     -0.00
                               -0.00  21052.86      0.00
                               -0.00      0.00  21052.86

     corecor stress (kbar) -27577.23      0.00      0.00
                                0.00 -27577.23     -0.00
                                0.00     -0.00 -27577.23

     ewald   stress (kbar) -35779.30      0.00     -0.00
                                0.00 -35779.30     -0.00
                               -0.00     -0.00 -35779.30

     hubbard stress (kbar)      0.00      0.00      0.00
                                0.00      0.00      0.00
                                0.00      0.00      0.00

     DFT-D   stress (kbar)      0.00      0.00      0.00
                                0.00      0.00      0.00
                                0.00      0.00      0.00

     XDM     stress (kbar)      0.00      0.00      0.00
                                0.00      0.00      0.00
                                0.00      0.00      0.00

     dft-nl  stress (kbar)      0.00      0.00      0.00
                                0.00      0.00      0.00
                                0.00      0.00      0.00

     TS-vdW  stress (kbar)      0.00      0.00      0.00
                                0.00      0.00      0.00
                                0.00      0.00      0.00


                                0.00      0.00      0.00
                                0.00      0.00      0.00


                                0.00      0.00      0.00


     Writing output data file ./Uranium.save/

     init_run     :      5.56s CPU      5.77s WALL (       1 calls)
     electrons    :   1696.94s CPU   1727.00s WALL (       1 calls)
     forces       :      4.36s CPU      4.53s WALL (       1 calls)
     stress       :      6.50s CPU      6.75s WALL (       1 calls)

     Called by init_run:
     wfcinit      :      4.17s CPU      4.25s WALL (       1 calls)
     wfcinit:wfcr :      3.92s CPU      4.00s WALL (     112 calls)
     potinit      :      0.25s CPU      0.26s WALL (       1 calls)
     hinit0       :      0.51s CPU      0.52s WALL (       1 calls)

     Called by electrons:
     c_bands      :   1558.17s CPU   1579.05s WALL (      53 calls)
     sum_band     :    107.56s CPU    113.29s WALL (      53 calls)
     v_of_rho     :      4.57s CPU      4.62s WALL (      54 calls)
     v_h          :      0.13s CPU      0.13s WALL (      54 calls)
     v_xc         :      4.59s CPU      4.65s WALL (      56 calls)
     newd         :     26.21s CPU     29.46s WALL (      54 calls)
     mix_rho      :      0.57s CPU      0.63s WALL (      53 calls)

     Called by c_bands:
     init_us_2    :      6.37s CPU      6.80s WALL (   12208 calls)
     cegterg      :   1524.94s CPU   1544.92s WALL (    6056 calls)

     Called by sum_band:
     sum_band:wei :      0.65s CPU      0.66s WALL (      53 calls)
     sum_band:loo :     81.85s CPU     83.51s WALL (      53 calls)
     sum_band:buf :      0.70s CPU      0.74s WALL (    5936 calls)
     sum_band:ini :      2.79s CPU      2.95s WALL (    5936 calls)
     sum_band:cal :     26.12s CPU     26.40s WALL (    5936 calls)
     sum_band:bec :      3.75s CPU      3.77s WALL (    5936 calls)
     addusdens    :     21.81s CPU     25.75s WALL (      53 calls)
     addusd:skk   :      0.02s CPU      0.02s WALL (      53 calls)
     addusd:dgemm :      6.52s CPU      9.54s WALL (     106 calls)
     addusd:qvan2 :     14.12s CPU     14.60s WALL (     106 calls)

     Called by *egterg:
     cdiaghg      :    328.36s CPU    330.15s WALL (   92898 calls)
     cegterg:over :    109.70s CPU    111.44s WALL (   86842 calls)
     cegterg:upda :     36.54s CPU     36.85s WALL (   86842 calls)
     cegterg:last :    127.92s CPU    128.59s WALL (   27438 calls)
     h_psi        :    753.60s CPU    767.55s WALL (   93010 calls)
     s_psi        :    124.89s CPU    125.86s WALL (   93010 calls)
     g_psi        :      2.20s CPU      2.23s WALL (   86842 calls)

     Called by h_psi:
     h_psi:calbec :    135.06s CPU    137.17s WALL (   93010 calls)
     vloc_psi     :    492.00s CPU    502.98s WALL (   93010 calls)
     add_vuspsi   :    124.77s CPU    125.65s WALL (   93010 calls)

     General routines
     calbec       :    163.65s CPU    166.14s WALL (   99506 calls)
     fft          :      2.14s CPU      2.18s WALL (    1388 calls)
     ffts         :      0.10s CPU      0.11s WALL (     214 calls)
     fftw         :    512.35s CPU    523.79s WALL ( 2060974 calls)
     interpolate  :      0.22s CPU      0.22s WALL (     108 calls)

     Parallel routines

     PWSCF        :  28m36.04s CPU  29m11.01s WALL


   This run was terminated on:  20: 3:20   5Dec2021            

=------------------------------------------------------------------------------=
   JOB DONE.
=------------------------------------------------------------------------------=
