
     Program PWSCF v.6.8 starts on  5Dec2021 at 15:56:39 

     This program is part of the open-source Quantum ESPRESSO suite
     for quantum simulation of materials; please cite
         "P. Giannozzi et al., J. Phys.:Condens. Matter 21 395502 (2009);
         "P. Giannozzi et al., J. Phys.:Condens. Matter 29 465901 (2017);
         "P. Giannozzi et al., J. Chem. Phys. 152 154105 (2020);
          URL http://www.quantum-espresso.org", 
     in publications or presentations arising from this work. More details at
     http://www.quantum-espresso.org/quote

     Parallel version (MPI), running on    32 processors

     MPI processes distributed on     1 nodes
     R & G space division:  proc/nbgrp/npool/nimage =      32
     38652 MiB available memory on the printing compute node when the environment starts

     Reading input from run3.in

     Current dimensions of program PWSCF are:
     Max number of different atomic species (ntypx) = 10
     Max number of k-points (npk) =  40000
     Max angular momentum in pseudopotentials (lmaxx) =  4
     file U.pbe-spfn-rrkjus_psl.1.0.0.UPF: wavefunction(s)  5F renormalized
     Found symmetry operation: I + ( -0.5000  0.5000  0.0000)
     This is a supercell, fractional translations are disabled
     Message from routine setup:
     using ibrav=0 with symmetry is DISCOURAGED, use correct ibrav instead

     Subspace diagonalization in iterative solution of the eigenvalue problem:
     a serial algorithm will be used


     Parallelization info
     --------------------
     sticks:   dense  smooth     PW     G-vecs:    dense   smooth      PW
     Min         130      65     18                 6294     2226     336
     Max         131      67     19                 6298     2231     341
     Sum        4165    2085    593               201485    71327   10827

     Using Slab Decomposition



     bravais-lattice index     =            0
     lattice parameter (alat)  =       8.3778  a.u.
     unit-cell volume          =     588.0141 (a.u.)^3
     number of atoms/cell      =            4
     number of atomic types    =            1
     number of electrons       =        56.00
     number of Kohn-Sham states=           32
     kinetic-energy cutoff     =      93.0000  Ry
     charge density cutoff     =     744.0000  Ry
     scf convergence threshold =      1.0E-08
     mixing beta               =       0.5000
     number of iterations used =            8  plain     mixing
     energy convergence thresh.=      7.7E-06
     force convergence thresh. =      4.0E-05
     press convergence thresh. =      5.0E-01
     Exchange-correlation= PBE
                           (   1   4   3   4   0   0   0)
     nstep                     =         2000


     celldm(1)=   8.377785  celldm(2)=   0.000000  celldm(3)=   0.000000
     celldm(4)=   0.000000  celldm(5)=   0.000000  celldm(6)=   0.000000

     crystal axes: (cart. coord. in units of alat)
               a(1) = (   1.000000   0.000000   0.000000 )  
               a(2) = (   0.000000   1.000000   0.000000 )  
               a(3) = (   0.000000   0.000000   1.000000 )  

     reciprocal axes: (cart. coord. in units 2 pi/alat)
               b(1) = (  1.000000  0.000000  0.000000 )  
               b(2) = (  0.000000  1.000000  0.000000 )  
               b(3) = (  0.000000  0.000000  1.000000 )  


     PseudoPot. # 1 for U  read from file:
     /home/myhawary/QE/runs/pseudo/U.pbe-spfn-rrkjus_psl.1.0.0.UPF
     MD5 check sum: b50a7459bb2a1ad67e79ea3a31ec714c
     Pseudo is Ultrasoft + core correction, Zval = 14.0
     Generated using &quot;atomic&quot; code by A. Dal Corso  v.6.2.2
     Using radial grid of 1291 points,  8 beta functions with: 
                l(1) =   0
                l(2) =   0
                l(3) =   1
                l(4) =   1
                l(5) =   2
                l(6) =   2
                l(7) =   3
                l(8) =   3
     Q(r) pseudized with 0 coefficients 


     atomic species   valence    mass     pseudopotential
        U             14.00   238.00000     U ( 1.00)

     Starting magnetic structure 
     atomic species   magnetization
        U            0.100

     48 Sym. Ops., with inversion, found


                                    s                        frac. trans.

      isym =  1     identity                                     

 cryst.   s( 1) = (     1          0          0      )
                  (     0          1          0      )
                  (     0          0          1      )

 cart.    s( 1) = (  1.0000000  0.0000000  0.0000000 )
                  (  0.0000000  1.0000000  0.0000000 )
                  (  0.0000000  0.0000000  1.0000000 )


      isym =  2     180 deg rotation - cart. axis [0,0,1]        

 cryst.   s( 2) = (    -1          0          0      )
                  (     0         -1          0      )
                  (     0          0          1      )

 cart.    s( 2) = ( -1.0000000  0.0000000  0.0000000 )
                  (  0.0000000 -1.0000000  0.0000000 )
                  (  0.0000000  0.0000000  1.0000000 )


      isym =  3     180 deg rotation - cart. axis [0,1,0]        

 cryst.   s( 3) = (    -1          0          0      )
                  (     0          1          0      )
                  (     0          0         -1      )

 cart.    s( 3) = ( -1.0000000  0.0000000  0.0000000 )
                  (  0.0000000  1.0000000  0.0000000 )
                  (  0.0000000  0.0000000 -1.0000000 )


      isym =  4     180 deg rotation - cart. axis [1,0,0]        

 cryst.   s( 4) = (     1          0          0      )
                  (     0         -1          0      )
                  (     0          0         -1      )

 cart.    s( 4) = (  1.0000000  0.0000000  0.0000000 )
                  (  0.0000000 -1.0000000  0.0000000 )
                  (  0.0000000  0.0000000 -1.0000000 )


      isym =  5     180 deg rotation - cart. axis [1,1,0]        

 cryst.   s( 5) = (     0          1          0      )
                  (     1          0          0      )
                  (     0          0         -1      )

 cart.    s( 5) = (  0.0000000  0.9999999  0.0000000 )
                  (  1.0000001  0.0000000  0.0000000 )
                  (  0.0000000  0.0000000 -1.0000000 )


      isym =  6     180 deg rotation - cart. axis [1,-1,0]       

 cryst.   s( 6) = (     0         -1          0      )
                  (    -1          0          0      )
                  (     0          0         -1      )

 cart.    s( 6) = (  0.0000000 -0.9999999  0.0000000 )
                  ( -1.0000001  0.0000000  0.0000000 )
                  (  0.0000000  0.0000000 -1.0000000 )


      isym =  7      90 deg rotation - cart. axis [0,0,-1]       

 cryst.   s( 7) = (     0         -1          0      )
                  (     1          0          0      )
                  (     0          0          1      )

 cart.    s( 7) = (  0.0000000  0.9999999  0.0000000 )
                  ( -1.0000001  0.0000000  0.0000000 )
                  (  0.0000000  0.0000000  1.0000000 )


      isym =  8      90 deg rotation - cart. axis [0,0,1]        

 cryst.   s( 8) = (     0          1          0      )
                  (    -1          0          0      )
                  (     0          0          1      )

 cart.    s( 8) = (  0.0000000 -0.9999999  0.0000000 )
                  (  1.0000001  0.0000000  0.0000000 )
                  (  0.0000000  0.0000000  1.0000000 )


      isym =  9     180 deg rotation - cart. axis [1,0,1]        

 cryst.   s( 9) = (     0          0          1      )
                  (     0         -1          0      )
                  (     1          0          0      )

 cart.    s( 9) = (  0.0000000  0.0000000  0.9999999 )
                  (  0.0000000 -1.0000000  0.0000000 )
                  (  1.0000001  0.0000000  0.0000000 )


      isym = 10     180 deg rotation - cart. axis [-1,0,1]       

 cryst.   s(10) = (     0          0         -1      )
                  (     0         -1          0      )
                  (    -1          0          0      )

 cart.    s(10) = (  0.0000000  0.0000000 -0.9999999 )
                  (  0.0000000 -1.0000000  0.0000000 )
                  ( -1.0000001  0.0000000  0.0000000 )


      isym = 11      90 deg rotation - cart. axis [0,1,0]        

 cryst.   s(11) = (     0          0         -1      )
                  (     0          1          0      )
                  (     1          0          0      )

 cart.    s(11) = (  0.0000000  0.0000000  0.9999999 )
                  (  0.0000000  1.0000000  0.0000000 )
                  ( -1.0000001  0.0000000  0.0000000 )


      isym = 12      90 deg rotation - cart. axis [0,-1,0]       

 cryst.   s(12) = (     0          0          1      )
                  (     0          1          0      )
                  (    -1          0          0      )

 cart.    s(12) = (  0.0000000  0.0000000 -0.9999999 )
                  (  0.0000000  1.0000000  0.0000000 )
                  (  1.0000001  0.0000000  0.0000000 )


      isym = 13     180 deg rotation - cart. axis [0,1,1]        

 cryst.   s(13) = (    -1          0          0      )
                  (     0          0          1      )
                  (     0          1          0      )

 cart.    s(13) = ( -1.0000000  0.0000000  0.0000000 )
                  (  0.0000000  0.0000000  1.0000000 )
                  (  0.0000000  1.0000000  0.0000000 )


      isym = 14     180 deg rotation - cart. axis [0,1,-1]       

 cryst.   s(14) = (    -1          0          0      )
                  (     0          0         -1      )
                  (     0         -1          0      )

 cart.    s(14) = ( -1.0000000  0.0000000  0.0000000 )
                  (  0.0000000  0.0000000 -1.0000000 )
                  (  0.0000000 -1.0000000  0.0000000 )


      isym = 15      90 deg rotation - cart. axis [-1,0,0]       

 cryst.   s(15) = (     1          0          0      )
                  (     0          0         -1      )
                  (     0          1          0      )

 cart.    s(15) = (  1.0000000  0.0000000  0.0000000 )
                  (  0.0000000  0.0000000  1.0000000 )
                  (  0.0000000 -1.0000000  0.0000000 )


      isym = 16      90 deg rotation - cart. axis [1,0,0]        

 cryst.   s(16) = (     1          0          0      )
                  (     0          0          1      )
                  (     0         -1          0      )

 cart.    s(16) = (  1.0000000  0.0000000  0.0000000 )
                  (  0.0000000  0.0000000 -1.0000000 )
                  (  0.0000000  1.0000000  0.0000000 )


      isym = 17     120 deg rotation - cart. axis [-1,-1,-1]     

 cryst.   s(17) = (     0          0          1      )
                  (     1          0          0      )
                  (     0          1          0      )

 cart.    s(17) = (  0.0000000  0.9999999  0.0000000 )
                  (  0.0000000  0.0000000  1.0000000 )
                  (  1.0000001  0.0000000  0.0000000 )


      isym = 18     120 deg rotation - cart. axis [-1,1,1]       

 cryst.   s(18) = (     0          0         -1      )
                  (    -1          0          0      )
                  (     0          1          0      )

 cart.    s(18) = (  0.0000000 -0.9999999  0.0000000 )
                  (  0.0000000  0.0000000  1.0000000 )
                  ( -1.0000001  0.0000000  0.0000000 )


      isym = 19     120 deg rotation - cart. axis [1,1,-1]       

 cryst.   s(19) = (     0          0         -1      )
                  (     1          0          0      )
                  (     0         -1          0      )

 cart.    s(19) = (  0.0000000  0.9999999  0.0000000 )
                  (  0.0000000  0.0000000 -1.0000000 )
                  ( -1.0000001  0.0000000  0.0000000 )


      isym = 20     120 deg rotation - cart. axis [1,-1,1]       

 cryst.   s(20) = (     0          0          1      )
                  (    -1          0          0      )
                  (     0         -1          0      )

 cart.    s(20) = (  0.0000000 -0.9999999  0.0000000 )
                  (  0.0000000  0.0000000 -1.0000000 )
                  (  1.0000001  0.0000000  0.0000000 )


      isym = 21     120 deg rotation - cart. axis [1,1,1]        

 cryst.   s(21) = (     0          1          0      )
                  (     0          0          1      )
                  (     1          0          0      )

 cart.    s(21) = (  0.0000000  0.0000000  0.9999999 )
                  (  1.0000001  0.0000000  0.0000000 )
                  (  0.0000000  1.0000000  0.0000000 )


      isym = 22     120 deg rotation - cart. axis [-1,1,-1]      

 cryst.   s(22) = (     0         -1          0      )
                  (     0          0         -1      )
                  (     1          0          0      )

 cart.    s(22) = (  0.0000000  0.0000000  0.9999999 )
                  ( -1.0000001  0.0000000  0.0000000 )
                  (  0.0000000 -1.0000000  0.0000000 )


      isym = 23     120 deg rotation - cart. axis [1,-1,-1]      

 cryst.   s(23) = (     0         -1          0      )
                  (     0          0          1      )
                  (    -1          0          0      )

 cart.    s(23) = (  0.0000000  0.0000000 -0.9999999 )
                  ( -1.0000001  0.0000000  0.0000000 )
                  (  0.0000000  1.0000000  0.0000000 )


      isym = 24     120 deg rotation - cart. axis [-1,-1,1]      

 cryst.   s(24) = (     0          1          0      )
                  (     0          0         -1      )
                  (    -1          0          0      )

 cart.    s(24) = (  0.0000000  0.0000000 -0.9999999 )
                  (  1.0000001  0.0000000  0.0000000 )
                  (  0.0000000 -1.0000000  0.0000000 )


      isym = 25     inversion                                    

 cryst.   s(25) = (    -1          0          0      )
                  (     0         -1          0      )
                  (     0          0         -1      )

 cart.    s(25) = ( -1.0000000  0.0000000  0.0000000 )
                  (  0.0000000 -1.0000000  0.0000000 )
                  (  0.0000000  0.0000000 -1.0000000 )


      isym = 26     inv. 180 deg rotation - cart. axis [0,0,1]   

 cryst.   s(26) = (     1          0          0      )
                  (     0          1          0      )
                  (     0          0         -1      )

 cart.    s(26) = (  1.0000000  0.0000000  0.0000000 )
                  (  0.0000000  1.0000000  0.0000000 )
                  (  0.0000000  0.0000000 -1.0000000 )


      isym = 27     inv. 180 deg rotation - cart. axis [0,1,0]   

 cryst.   s(27) = (     1          0          0      )
                  (     0         -1          0      )
                  (     0          0          1      )

 cart.    s(27) = (  1.0000000  0.0000000  0.0000000 )
                  (  0.0000000 -1.0000000  0.0000000 )
                  (  0.0000000  0.0000000  1.0000000 )


      isym = 28     inv. 180 deg rotation - cart. axis [1,0,0]   

 cryst.   s(28) = (    -1          0          0      )
                  (     0          1          0      )
                  (     0          0          1      )

 cart.    s(28) = ( -1.0000000  0.0000000  0.0000000 )
                  (  0.0000000  1.0000000  0.0000000 )
                  (  0.0000000  0.0000000  1.0000000 )


      isym = 29     inv. 180 deg rotation - cart. axis [1,1,0]   

 cryst.   s(29) = (     0         -1          0      )
                  (    -1          0          0      )
                  (     0          0          1      )

 cart.    s(29) = (  0.0000000 -0.9999999  0.0000000 )
                  ( -1.0000001  0.0000000  0.0000000 )
                  (  0.0000000  0.0000000  1.0000000 )


      isym = 30     inv. 180 deg rotation - cart. axis [1,-1,0]  

 cryst.   s(30) = (     0          1          0      )
                  (     1          0          0      )
                  (     0          0          1      )

 cart.    s(30) = (  0.0000000  0.9999999  0.0000000 )
                  (  1.0000001  0.0000000  0.0000000 )
                  (  0.0000000  0.0000000  1.0000000 )


      isym = 31     inv.  90 deg rotation - cart. axis [0,0,-1]  

 cryst.   s(31) = (     0          1          0      )
                  (    -1          0          0      )
                  (     0          0         -1      )

 cart.    s(31) = (  0.0000000 -0.9999999  0.0000000 )
                  (  1.0000001  0.0000000  0.0000000 )
                  (  0.0000000  0.0000000 -1.0000000 )


      isym = 32     inv.  90 deg rotation - cart. axis [0,0,1]   

 cryst.   s(32) = (     0         -1          0      )
                  (     1          0          0      )
                  (     0          0         -1      )

 cart.    s(32) = (  0.0000000  0.9999999  0.0000000 )
                  ( -1.0000001  0.0000000  0.0000000 )
                  (  0.0000000  0.0000000 -1.0000000 )


      isym = 33     inv. 180 deg rotation - cart. axis [1,0,1]   

 cryst.   s(33) = (     0          0         -1      )
                  (     0          1          0      )
                  (    -1          0          0      )

 cart.    s(33) = (  0.0000000  0.0000000 -0.9999999 )
                  (  0.0000000  1.0000000  0.0000000 )
                  ( -1.0000001  0.0000000  0.0000000 )


      isym = 34     inv. 180 deg rotation - cart. axis [-1,0,1]  

 cryst.   s(34) = (     0          0          1      )
                  (     0          1          0      )
                  (     1          0          0      )

 cart.    s(34) = (  0.0000000  0.0000000  0.9999999 )
                  (  0.0000000  1.0000000  0.0000000 )
                  (  1.0000001  0.0000000  0.0000000 )


      isym = 35     inv.  90 deg rotation - cart. axis [0,1,0]   

 cryst.   s(35) = (     0          0          1      )
                  (     0         -1          0      )
                  (    -1          0          0      )

 cart.    s(35) = (  0.0000000  0.0000000 -0.9999999 )
                  (  0.0000000 -1.0000000  0.0000000 )
                  (  1.0000001  0.0000000  0.0000000 )


      isym = 36     inv.  90 deg rotation - cart. axis [0,-1,0]  

 cryst.   s(36) = (     0          0         -1      )
                  (     0         -1          0      )
                  (     1          0          0      )

 cart.    s(36) = (  0.0000000  0.0000000  0.9999999 )
                  (  0.0000000 -1.0000000  0.0000000 )
                  ( -1.0000001  0.0000000  0.0000000 )


      isym = 37     inv. 180 deg rotation - cart. axis [0,1,1]   

 cryst.   s(37) = (     1          0          0      )
                  (     0          0         -1      )
                  (     0         -1          0      )

 cart.    s(37) = (  1.0000000  0.0000000  0.0000000 )
                  (  0.0000000  0.0000000 -1.0000000 )
                  (  0.0000000 -1.0000000  0.0000000 )


      isym = 38     inv. 180 deg rotation - cart. axis [0,1,-1]  

 cryst.   s(38) = (     1          0          0      )
                  (     0          0          1      )
                  (     0          1          0      )

 cart.    s(38) = (  1.0000000  0.0000000  0.0000000 )
                  (  0.0000000  0.0000000  1.0000000 )
                  (  0.0000000  1.0000000  0.0000000 )


      isym = 39     inv.  90 deg rotation - cart. axis [-1,0,0]  

 cryst.   s(39) = (    -1          0          0      )
                  (     0          0          1      )
                  (     0         -1          0      )

 cart.    s(39) = ( -1.0000000  0.0000000  0.0000000 )
                  (  0.0000000  0.0000000 -1.0000000 )
                  (  0.0000000  1.0000000  0.0000000 )


      isym = 40     inv.  90 deg rotation - cart. axis [1,0,0]   

 cryst.   s(40) = (    -1          0          0      )
                  (     0          0         -1      )
                  (     0          1          0      )

 cart.    s(40) = ( -1.0000000  0.0000000  0.0000000 )
                  (  0.0000000  0.0000000  1.0000000 )
                  (  0.0000000 -1.0000000  0.0000000 )


      isym = 41     inv. 120 deg rotation - cart. axis [-1,-1,-1]

 cryst.   s(41) = (     0          0         -1      )
                  (    -1          0          0      )
                  (     0         -1          0      )

 cart.    s(41) = (  0.0000000 -0.9999999  0.0000000 )
                  (  0.0000000  0.0000000 -1.0000000 )
                  ( -1.0000001  0.0000000  0.0000000 )


      isym = 42     inv. 120 deg rotation - cart. axis [-1,1,1]  

 cryst.   s(42) = (     0          0          1      )
                  (     1          0          0      )
                  (     0         -1          0      )

 cart.    s(42) = (  0.0000000  0.9999999  0.0000000 )
                  (  0.0000000  0.0000000 -1.0000000 )
                  (  1.0000001  0.0000000  0.0000000 )


      isym = 43     inv. 120 deg rotation - cart. axis [1,1,-1]  

 cryst.   s(43) = (     0          0          1      )
                  (    -1          0          0      )
                  (     0          1          0      )

 cart.    s(43) = (  0.0000000 -0.9999999  0.0000000 )
                  (  0.0000000  0.0000000  1.0000000 )
                  (  1.0000001  0.0000000  0.0000000 )


      isym = 44     inv. 120 deg rotation - cart. axis [1,-1,1]  

 cryst.   s(44) = (     0          0         -1      )
                  (     1          0          0      )
                  (     0          1          0      )

 cart.    s(44) = (  0.0000000  0.9999999  0.0000000 )
                  (  0.0000000  0.0000000  1.0000000 )
                  ( -1.0000001  0.0000000  0.0000000 )


      isym = 45     inv. 120 deg rotation - cart. axis [1,1,1]   

 cryst.   s(45) = (     0         -1          0      )
                  (     0          0         -1      )
                  (    -1          0          0      )

 cart.    s(45) = (  0.0000000  0.0000000 -0.9999999 )
                  ( -1.0000001  0.0000000  0.0000000 )
                  (  0.0000000 -1.0000000  0.0000000 )


      isym = 46     inv. 120 deg rotation - cart. axis [-1,1,-1] 

 cryst.   s(46) = (     0          1          0      )
                  (     0          0          1      )
                  (    -1          0          0      )

 cart.    s(46) = (  0.0000000  0.0000000 -0.9999999 )
                  (  1.0000001  0.0000000  0.0000000 )
                  (  0.0000000  1.0000000  0.0000000 )


      isym = 47     inv. 120 deg rotation - cart. axis [1,-1,-1] 

 cryst.   s(47) = (     0          1          0      )
                  (     0          0         -1      )
                  (     1          0          0      )

 cart.    s(47) = (  0.0000000  0.0000000  0.9999999 )
                  (  1.0000001  0.0000000  0.0000000 )
                  (  0.0000000 -1.0000000  0.0000000 )


      isym = 48     inv. 120 deg rotation - cart. axis [-1,-1,1] 

 cryst.   s(48) = (     0         -1          0      )
                  (     0          0          1      )
                  (     1          0          0      )

 cart.    s(48) = (  0.0000000  0.0000000  0.9999999 )
                  ( -1.0000001  0.0000000  0.0000000 )
                  (  0.0000000  1.0000000  0.0000000 )


   Cartesian axes

     site n.     atom                  positions (alat units)
         1           U   tau(   1) = (   0.0000000   0.0000000   0.0000000  )
         2           U   tau(   2) = (   0.5000000   0.5000000   0.0000000  )
         3           U   tau(   3) = (   0.5000000   0.0000000   0.5000000  )
         4           U   tau(   4) = (   0.0000000   0.5000000   0.5000000  )

   Crystallographic axes

     site n.     atom                  positions (cryst. coord.)
         1           U   tau(   1) = (  0.0000000  0.0000000  0.0000000  )
         2           U   tau(   2) = (  0.5000000  0.5000000  0.0000000  )
         3           U   tau(   3) = (  0.5000000  0.0000000  0.5000000  )
         4           U   tau(   4) = (  0.0000000  0.5000000  0.5000000  )

     number of k points=    10  Marzari-Vanderbilt smearing, width (Ry)=  0.0500
                       cart. coord. in units 2pi/alat
        k(    1) = (   0.0000000   0.0000000   0.0000000), wk =   0.0156250
        k(    2) = (   0.0000000   0.0000000   0.2500000), wk =   0.0937500
        k(    3) = (   0.0000000   0.0000000  -0.5000000), wk =   0.0468750
        k(    4) = (   0.0000000   0.2500000   0.2500000), wk =   0.1875000
        k(    5) = (   0.0000000   0.2500000  -0.5000000), wk =   0.1875000
        k(    6) = (   0.0000000  -0.5000000  -0.5000000), wk =   0.0468750
        k(    7) = (   0.2500000   0.2500000   0.2500000), wk =   0.1250000
        k(    8) = (   0.2500000   0.2500000  -0.5000000), wk =   0.1875000
        k(    9) = (   0.2500000  -0.5000000  -0.5000000), wk =   0.0937500
        k(   10) = (  -0.5000000  -0.5000000  -0.5000000), wk =   0.0156250

                       cryst. coord.
        k(    1) = (   0.0000000   0.0000000   0.0000000), wk =   0.0156250
        k(    2) = (   0.0000000   0.0000000   0.2500000), wk =   0.0937500
        k(    3) = (   0.0000000   0.0000000  -0.5000000), wk =   0.0468750
        k(    4) = (   0.0000000   0.2500000   0.2500000), wk =   0.1875000
        k(    5) = (   0.0000000   0.2500000  -0.5000000), wk =   0.1875000
        k(    6) = (   0.0000000  -0.5000000  -0.5000000), wk =   0.0468750
        k(    7) = (   0.2500000   0.2500000   0.2500000), wk =   0.1250000
        k(    8) = (   0.2500000   0.2500000  -0.5000000), wk =   0.1875000
        k(    9) = (   0.2500000  -0.5000000  -0.5000000), wk =   0.0937500
        k(   10) = (  -0.5000000  -0.5000000  -0.5000000), wk =   0.0156250

     Dense  grid:   201485 G-vectors     FFT dimensions: (  75,  75,  75)

     Smooth grid:    71327 G-vectors     FFT dimensions: (  54,  54,  54)

     Dynamical RAM for                 wfc:       0.14 MB

     Dynamical RAM for     wfc (w. buffer):       2.85 MB

     Dynamical RAM for           str. fact:       0.10 MB

     Dynamical RAM for           local pot:       0.00 MB

     Dynamical RAM for          nlocal pot:       0.54 MB

     Dynamical RAM for                qrad:      10.50 MB

     Dynamical RAM for          rho,v,vnew:       1.35 MB

     Dynamical RAM for               rhoin:       0.45 MB

     Dynamical RAM for            rho*nmix:       3.07 MB

     Dynamical RAM for           G-vectors:       0.38 MB

     Dynamical RAM for          h,s,v(r/c):       0.19 MB

     Dynamical RAM for          <psi|beta>:       0.06 MB

     Dynamical RAM for                 psi:       0.27 MB

     Dynamical RAM for                hpsi:       0.27 MB

     Dynamical RAM for                spsi:       0.27 MB

     Dynamical RAM for      wfcinit/wfcrot:       0.30 MB

     Dynamical RAM for           addusdens:      53.80 MB

     Dynamical RAM for          addusforce:      54.47 MB

     Dynamical RAM for         addusstress:      56.06 MB

     Estimated static dynamical RAM per process >      17.13 MB

     Estimated max dynamical RAM per process >      76.26 MB

     Estimated total dynamical RAM >       2.38 GB
     Generating pointlists ...
     new r_m :   0.2917 (alat units)  2.4436 (a.u.) for type    1

     Initial potential from superposition of free atoms

     starting charge   55.98204, renormalised to   56.00000
     Starting wfcs are random

     total cpu time spent up to now is        7.5 secs

     Self-consistent Calculation

     iteration #  1     ecut=    93.00 Ry     beta= 0.50
     Davidson diagonalization with overlap

---- Real-time Memory Report at c_bands before calling an iterative solver
            94 MiB given to the printing process from OS
             0 MiB allocation reported by mallinfo(arena+hblkhd)
         39165 MiB available memory on the node where the printing process lives
------------------
     ethr =  1.00E-02,  avg # of iterations = 11.2

     total cpu time spent up to now is       25.9 secs

     total energy              =    -516.11470001 Ry
     estimated scf accuracy    <       1.84018673 Ry

     total magnetization       =     2.21 Bohr mag/cell
     absolute magnetization    =     2.21 Bohr mag/cell

     iteration #  2     ecut=    93.00 Ry     beta= 0.50
     Davidson diagonalization with overlap

---- Real-time Memory Report at c_bands before calling an iterative solver
            99 MiB given to the printing process from OS
             0 MiB allocation reported by mallinfo(arena+hblkhd)
         39051 MiB available memory on the node where the printing process lives
------------------
     ethr =  3.29E-03,  avg # of iterations =  6.2

     total cpu time spent up to now is       40.9 secs

     total energy              =    -517.10195706 Ry
     estimated scf accuracy    <       1.70735482 Ry

     total magnetization       =     2.62 Bohr mag/cell
     absolute magnetization    =     2.62 Bohr mag/cell

     iteration #  3     ecut=    93.00 Ry     beta= 0.50
     Davidson diagonalization with overlap

---- Real-time Memory Report at c_bands before calling an iterative solver
            99 MiB given to the printing process from OS
             0 MiB allocation reported by mallinfo(arena+hblkhd)
         38546 MiB available memory on the node where the printing process lives
------------------
     ethr =  3.05E-03,  avg # of iterations =  2.2

     total cpu time spent up to now is       51.2 secs

     total energy              =    -517.29516166 Ry
     estimated scf accuracy    <       0.27246330 Ry

     total magnetization       =     1.90 Bohr mag/cell
     absolute magnetization    =     1.90 Bohr mag/cell

     iteration #  4     ecut=    93.00 Ry     beta= 0.50
     Davidson diagonalization with overlap

---- Real-time Memory Report at c_bands before calling an iterative solver
            99 MiB given to the printing process from OS
             0 MiB allocation reported by mallinfo(arena+hblkhd)
         39031 MiB available memory on the node where the printing process lives
------------------
     c_bands:  1 eigenvalues not converged
     c_bands:  2 eigenvalues not converged
     c_bands:  1 eigenvalues not converged
     c_bands:  1 eigenvalues not converged
     c_bands:  1 eigenvalues not converged
     c_bands:  1 eigenvalues not converged
     ethr =  4.87E-04,  avg # of iterations = 14.3

     total cpu time spent up to now is      179.0 secs

     total energy              =    -517.41729290 Ry
     estimated scf accuracy    <       0.15754753 Ry

     total magnetization       =     2.04 Bohr mag/cell
     absolute magnetization    =     2.05 Bohr mag/cell

     iteration #  5     ecut=    93.00 Ry     beta= 0.50
     Davidson diagonalization with overlap

---- Real-time Memory Report at c_bands before calling an iterative solver
           106 MiB given to the printing process from OS
             0 MiB allocation reported by mallinfo(arena+hblkhd)
         36434 MiB available memory on the node where the printing process lives
------------------
     c_bands:  1 eigenvalues not converged
     c_bands:  1 eigenvalues not converged
     c_bands:  1 eigenvalues not converged
     c_bands:  2 eigenvalues not converged
     c_bands:  1 eigenvalues not converged
     c_bands:  1 eigenvalues not converged
     ethr =  2.81E-04,  avg # of iterations = 12.2

     total cpu time spent up to now is      394.7 secs

     total energy              =    -517.45005979 Ry
     estimated scf accuracy    <       0.00376936 Ry

     total magnetization       =     1.69 Bohr mag/cell
     absolute magnetization    =     1.70 Bohr mag/cell

     iteration #  6     ecut=    93.00 Ry     beta= 0.50
     Davidson diagonalization with overlap

---- Real-time Memory Report at c_bands before calling an iterative solver
           107 MiB given to the printing process from OS
             0 MiB allocation reported by mallinfo(arena+hblkhd)
         35961 MiB available memory on the node where the printing process lives
------------------
     c_bands:  4 eigenvalues not converged
     c_bands:  5 eigenvalues not converged
     c_bands:  4 eigenvalues not converged
     c_bands:  5 eigenvalues not converged
     c_bands:  4 eigenvalues not converged
     c_bands:  4 eigenvalues not converged
     c_bands:  5 eigenvalues not converged
     c_bands:  4 eigenvalues not converged
     c_bands:  5 eigenvalues not converged
     c_bands:  3 eigenvalues not converged
     c_bands:  3 eigenvalues not converged
     c_bands:  2 eigenvalues not converged
     c_bands:  4 eigenvalues not converged
     c_bands:  4 eigenvalues not converged
     c_bands:  4 eigenvalues not converged
     c_bands:  4 eigenvalues not converged
     c_bands:  1 eigenvalues not converged
     c_bands:  4 eigenvalues not converged
     ethr =  6.73E-06,  avg # of iterations = 22.8

     total cpu time spent up to now is      900.3 secs

     total energy              =    -517.47381701 Ry
     estimated scf accuracy    <       0.16514232 Ry

     total magnetization       =     1.35 Bohr mag/cell
     absolute magnetization    =     1.37 Bohr mag/cell

     iteration #  7     ecut=    93.00 Ry     beta= 0.50
     Davidson diagonalization with overlap

---- Real-time Memory Report at c_bands before calling an iterative solver
           108 MiB given to the printing process from OS
             0 MiB allocation reported by mallinfo(arena+hblkhd)
         35914 MiB available memory on the node where the printing process lives
------------------
     c_bands:  1 eigenvalues not converged
     c_bands:  1 eigenvalues not converged
     c_bands:  4 eigenvalues not converged
     c_bands:  2 eigenvalues not converged
     c_bands:  4 eigenvalues not converged
     c_bands:  3 eigenvalues not converged
     c_bands:  2 eigenvalues not converged
     c_bands:  1 eigenvalues not converged
     c_bands:  1 eigenvalues not converged
     c_bands:  3 eigenvalues not converged
     c_bands:  2 eigenvalues not converged
     c_bands:  3 eigenvalues not converged
     c_bands:  2 eigenvalues not converged
     c_bands:  2 eigenvalues not converged
     ethr =  6.73E-06,  avg # of iterations = 18.4

     total cpu time spent up to now is     1228.8 secs

     total energy              =    -517.48062687 Ry
     estimated scf accuracy    <       0.00229539 Ry

     total magnetization       =     1.41 Bohr mag/cell
     absolute magnetization    =     1.42 Bohr mag/cell

     iteration #  8     ecut=    93.00 Ry     beta= 0.50
     Davidson diagonalization with overlap

---- Real-time Memory Report at c_bands before calling an iterative solver
           109 MiB given to the printing process from OS
             0 MiB allocation reported by mallinfo(arena+hblkhd)
         35903 MiB available memory on the node where the printing process lives
------------------
     c_bands:  3 eigenvalues not converged
     c_bands:  3 eigenvalues not converged
     c_bands:  2 eigenvalues not converged
     c_bands:  3 eigenvalues not converged
     c_bands:  1 eigenvalues not converged
     c_bands:  1 eigenvalues not converged
     ethr =  4.10E-06,  avg # of iterations = 11.4

     total cpu time spent up to now is     1462.6 secs

     total energy              =    -517.48029824 Ry
     estimated scf accuracy    <       0.01441422 Ry

     total magnetization       =     1.29 Bohr mag/cell
     absolute magnetization    =     1.31 Bohr mag/cell

     iteration #  9     ecut=    93.00 Ry     beta= 0.50
     Davidson diagonalization with overlap

---- Real-time Memory Report at c_bands before calling an iterative solver
           109 MiB given to the printing process from OS
             0 MiB allocation reported by mallinfo(arena+hblkhd)
         35794 MiB available memory on the node where the printing process lives
------------------
     c_bands:  2 eigenvalues not converged
     c_bands:  1 eigenvalues not converged
     c_bands:  2 eigenvalues not converged
     c_bands:  2 eigenvalues not converged
     c_bands:  2 eigenvalues not converged
     c_bands:  3 eigenvalues not converged
     c_bands:  2 eigenvalues not converged
     c_bands:  1 eigenvalues not converged
     ethr =  4.10E-06,  avg # of iterations = 15.5

     total cpu time spent up to now is     1749.6 secs

     total energy              =    -517.48252807 Ry
     estimated scf accuracy    <       0.01555351 Ry

     total magnetization       =     1.27 Bohr mag/cell
     absolute magnetization    =     1.30 Bohr mag/cell

     iteration # 10     ecut=    93.00 Ry     beta= 0.50
     Davidson diagonalization with overlap

---- Real-time Memory Report at c_bands before calling an iterative solver
           110 MiB given to the printing process from OS
             0 MiB allocation reported by mallinfo(arena+hblkhd)
         34616 MiB available memory on the node where the printing process lives
------------------
     c_bands:  2 eigenvalues not converged
     ethr =  4.10E-06,  avg # of iterations =  3.9

     total cpu time spent up to now is     1865.2 secs

     total energy              =    -517.48192290 Ry
     estimated scf accuracy    <       0.01276351 Ry

     total magnetization       =     1.22 Bohr mag/cell
     absolute magnetization    =     1.25 Bohr mag/cell

     iteration # 11     ecut=    93.00 Ry     beta= 0.50
     Davidson diagonalization with overlap

---- Real-time Memory Report at c_bands before calling an iterative solver
           110 MiB given to the printing process from OS
             0 MiB allocation reported by mallinfo(arena+hblkhd)
         35774 MiB available memory on the node where the printing process lives
------------------
     c_bands:  1 eigenvalues not converged
     ethr =  4.10E-06,  avg # of iterations =  6.8

     total cpu time spent up to now is     2010.9 secs

     total energy              =    -517.48209118 Ry
     estimated scf accuracy    <       0.00436053 Ry

     total magnetization       =     1.16 Bohr mag/cell
     absolute magnetization    =     1.18 Bohr mag/cell

     iteration # 12     ecut=    93.00 Ry     beta= 0.50
     Davidson diagonalization with overlap

---- Real-time Memory Report at c_bands before calling an iterative solver
           111 MiB given to the printing process from OS
             0 MiB allocation reported by mallinfo(arena+hblkhd)
         35667 MiB available memory on the node where the printing process lives
------------------
     c_bands:  1 eigenvalues not converged
     ethr =  4.10E-06,  avg # of iterations =  2.0

     total cpu time spent up to now is     2102.2 secs

     total energy              =    -517.48212501 Ry
     estimated scf accuracy    <       0.00369869 Ry

     total magnetization       =     1.15 Bohr mag/cell
     absolute magnetization    =     1.18 Bohr mag/cell

     iteration # 13     ecut=    93.00 Ry     beta= 0.50
     Davidson diagonalization with overlap

---- Real-time Memory Report at c_bands before calling an iterative solver
           111 MiB given to the printing process from OS
             0 MiB allocation reported by mallinfo(arena+hblkhd)
         35660 MiB available memory on the node where the printing process lives
------------------
     c_bands:  2 eigenvalues not converged
     ethr =  4.10E-06,  avg # of iterations =  1.9

     total cpu time spent up to now is     2196.7 secs

     total energy              =    -517.48190412 Ry
     estimated scf accuracy    <       0.00347052 Ry

     total magnetization       =     1.16 Bohr mag/cell
     absolute magnetization    =     1.18 Bohr mag/cell

     iteration # 14     ecut=    93.00 Ry     beta= 0.50
     Davidson diagonalization with overlap

---- Real-time Memory Report at c_bands before calling an iterative solver
           111 MiB given to the printing process from OS
             0 MiB allocation reported by mallinfo(arena+hblkhd)
         35659 MiB available memory on the node where the printing process lives
------------------
     ethr =  4.10E-06,  avg # of iterations =  7.6

     total cpu time spent up to now is     2354.0 secs

     total energy              =    -517.48223944 Ry
     estimated scf accuracy    <       0.00009995 Ry

     total magnetization       =     1.08 Bohr mag/cell
     absolute magnetization    =     1.10 Bohr mag/cell

     iteration # 15     ecut=    93.00 Ry     beta= 0.50
     Davidson diagonalization with overlap

---- Real-time Memory Report at c_bands before calling an iterative solver
           112 MiB given to the printing process from OS
             0 MiB allocation reported by mallinfo(arena+hblkhd)
         35651 MiB available memory on the node where the printing process lives
------------------
     c_bands:  3 eigenvalues not converged
     c_bands:  1 eigenvalues not converged
     c_bands:  1 eigenvalues not converged
     c_bands:  2 eigenvalues not converged
     c_bands:  2 eigenvalues not converged
     c_bands:  3 eigenvalues not converged
     c_bands:  3 eigenvalues not converged
     c_bands:  2 eigenvalues not converged
     c_bands:  1 eigenvalues not converged
     c_bands:  2 eigenvalues not converged
     c_bands:  2 eigenvalues not converged
     ethr =  1.78E-07,  avg # of iterations = 18.1

     total cpu time spent up to now is     2682.1 secs

     total energy              =    -517.48236128 Ry
     estimated scf accuracy    <       0.00508644 Ry

     total magnetization       =     0.99 Bohr mag/cell
     absolute magnetization    =     1.02 Bohr mag/cell

     iteration # 16     ecut=    93.00 Ry     beta= 0.50
     Davidson diagonalization with overlap

---- Real-time Memory Report at c_bands before calling an iterative solver
           112 MiB given to the printing process from OS
             0 MiB allocation reported by mallinfo(arena+hblkhd)
         35641 MiB available memory on the node where the printing process lives
------------------
     c_bands:  1 eigenvalues not converged
     c_bands:  2 eigenvalues not converged
     c_bands:  1 eigenvalues not converged
     c_bands:  1 eigenvalues not converged
     c_bands:  2 eigenvalues not converged
     c_bands:  2 eigenvalues not converged
     c_bands:  1 eigenvalues not converged
     ethr =  1.78E-07,  avg # of iterations = 13.8

     total cpu time spent up to now is     2927.1 secs

     total energy              =    -517.48225646 Ry
     estimated scf accuracy    <       0.00181402 Ry

     total magnetization       =     1.02 Bohr mag/cell
     absolute magnetization    =     1.04 Bohr mag/cell

     iteration # 17     ecut=    93.00 Ry     beta= 0.50
     Davidson diagonalization with overlap

---- Real-time Memory Report at c_bands before calling an iterative solver
           112 MiB given to the printing process from OS
             0 MiB allocation reported by mallinfo(arena+hblkhd)
         35636 MiB available memory on the node where the printing process lives
------------------
     c_bands:  2 eigenvalues not converged
     c_bands:  2 eigenvalues not converged
     c_bands:  2 eigenvalues not converged
     c_bands:  2 eigenvalues not converged
     c_bands:  2 eigenvalues not converged
     c_bands:  1 eigenvalues not converged
     c_bands:  1 eigenvalues not converged
     c_bands:  3 eigenvalues not converged
     c_bands:  2 eigenvalues not converged
     ethr =  1.78E-07,  avg # of iterations = 16.3

     total cpu time spent up to now is     3227.2 secs

     total energy              =    -517.48228633 Ry
     estimated scf accuracy    <       0.00037138 Ry

     total magnetization       =     1.05 Bohr mag/cell
     absolute magnetization    =     1.07 Bohr mag/cell

     iteration # 18     ecut=    93.00 Ry     beta= 0.50
     Davidson diagonalization with overlap

---- Real-time Memory Report at c_bands before calling an iterative solver
           113 MiB given to the printing process from OS
             0 MiB allocation reported by mallinfo(arena+hblkhd)
         35638 MiB available memory on the node where the printing process lives
------------------
     c_bands:  2 eigenvalues not converged
     c_bands:  2 eigenvalues not converged
     c_bands:  2 eigenvalues not converged
     c_bands:  2 eigenvalues not converged
     c_bands:  1 eigenvalues not converged
     c_bands:  2 eigenvalues not converged
     c_bands:  1 eigenvalues not converged
     ethr =  1.78E-07,  avg # of iterations = 13.2

     total cpu time spent up to now is     3457.2 secs

     total energy              =    -517.48240444 Ry
     estimated scf accuracy    <       0.00004195 Ry

     total magnetization       =     0.87 Bohr mag/cell
     absolute magnetization    =     0.89 Bohr mag/cell

     iteration # 19     ecut=    93.00 Ry     beta= 0.50
     Davidson diagonalization with overlap

---- Real-time Memory Report at c_bands before calling an iterative solver
           113 MiB given to the printing process from OS
             0 MiB allocation reported by mallinfo(arena+hblkhd)
         35639 MiB available memory on the node where the printing process lives
------------------
     c_bands:  2 eigenvalues not converged
     c_bands:  2 eigenvalues not converged
     c_bands:  1 eigenvalues not converged
     c_bands:  2 eigenvalues not converged
     c_bands:  3 eigenvalues not converged
     c_bands:  1 eigenvalues not converged
     c_bands:  3 eigenvalues not converged
     c_bands:  1 eigenvalues not converged
     c_bands:  2 eigenvalues not converged
     c_bands:  2 eigenvalues not converged
     c_bands:  2 eigenvalues not converged
     c_bands:  2 eigenvalues not converged
     ethr =  7.49E-08,  avg # of iterations = 17.1

     total cpu time spent up to now is     3781.0 secs

     total energy              =    -517.48255808 Ry
     estimated scf accuracy    <       0.00152292 Ry

     total magnetization       =     0.72 Bohr mag/cell
     absolute magnetization    =     0.74 Bohr mag/cell

     iteration # 20     ecut=    93.00 Ry     beta= 0.50
     Davidson diagonalization with overlap

---- Real-time Memory Report at c_bands before calling an iterative solver
           113 MiB given to the printing process from OS
             0 MiB allocation reported by mallinfo(arena+hblkhd)
         35627 MiB available memory on the node where the printing process lives
------------------
     c_bands:  2 eigenvalues not converged
     c_bands:  2 eigenvalues not converged
     c_bands:  2 eigenvalues not converged
     c_bands:  1 eigenvalues not converged
     c_bands:  2 eigenvalues not converged
     c_bands:  2 eigenvalues not converged
     c_bands:  1 eigenvalues not converged
     ethr =  7.49E-08,  avg # of iterations =  8.0

     total cpu time spent up to now is     3945.0 secs

     total energy              =    -517.48236586 Ry
     estimated scf accuracy    <       0.00172184 Ry

     total magnetization       =     0.73 Bohr mag/cell
     absolute magnetization    =     0.76 Bohr mag/cell

     iteration # 21     ecut=    93.00 Ry     beta= 0.50
     Davidson diagonalization with overlap

---- Real-time Memory Report at c_bands before calling an iterative solver
           113 MiB given to the printing process from OS
             0 MiB allocation reported by mallinfo(arena+hblkhd)
         35622 MiB available memory on the node where the printing process lives
------------------
     c_bands:  2 eigenvalues not converged
     c_bands:  2 eigenvalues not converged
     c_bands:  2 eigenvalues not converged
     c_bands:  1 eigenvalues not converged
     c_bands:  1 eigenvalues not converged
     c_bands:  1 eigenvalues not converged
     c_bands:  1 eigenvalues not converged
     c_bands:  2 eigenvalues not converged
     c_bands:  1 eigenvalues not converged
     ethr =  7.49E-08,  avg # of iterations = 14.9

     total cpu time spent up to now is     4230.7 secs

     total energy              =    -517.48243598 Ry
     estimated scf accuracy    <       0.00015633 Ry

     total magnetization       =     0.86 Bohr mag/cell
     absolute magnetization    =     0.88 Bohr mag/cell

     iteration # 22     ecut=    93.00 Ry     beta= 0.50
     Davidson diagonalization with overlap

---- Real-time Memory Report at c_bands before calling an iterative solver
           114 MiB given to the printing process from OS
             0 MiB allocation reported by mallinfo(arena+hblkhd)
         35617 MiB available memory on the node where the printing process lives
------------------
     c_bands:  2 eigenvalues not converged
     c_bands:  2 eigenvalues not converged
     c_bands:  2 eigenvalues not converged
     c_bands:  2 eigenvalues not converged
     c_bands:  2 eigenvalues not converged
     ethr =  7.49E-08,  avg # of iterations =  9.2

     total cpu time spent up to now is     4420.3 secs

     total energy              =    -517.48246310 Ry
     estimated scf accuracy    <       0.00002912 Ry

     total magnetization       =     0.90 Bohr mag/cell
     absolute magnetization    =     0.92 Bohr mag/cell

     iteration # 23     ecut=    93.00 Ry     beta= 0.50
     Davidson diagonalization with overlap

---- Real-time Memory Report at c_bands before calling an iterative solver
           114 MiB given to the printing process from OS
             0 MiB allocation reported by mallinfo(arena+hblkhd)
         35614 MiB available memory on the node where the printing process lives
------------------
     c_bands:  2 eigenvalues not converged
     c_bands:  2 eigenvalues not converged
     c_bands:  2 eigenvalues not converged
     c_bands:  1 eigenvalues not converged
     c_bands:  2 eigenvalues not converged
     ethr =  5.20E-08,  avg # of iterations = 13.0

     total cpu time spent up to now is     4669.8 secs

     total energy              =    -517.48247469 Ry
     estimated scf accuracy    <       0.00011474 Ry

     total magnetization       =     0.87 Bohr mag/cell
     absolute magnetization    =     0.89 Bohr mag/cell

     iteration # 24     ecut=    93.00 Ry     beta= 0.50
     Davidson diagonalization with overlap

---- Real-time Memory Report at c_bands before calling an iterative solver
           114 MiB given to the printing process from OS
             0 MiB allocation reported by mallinfo(arena+hblkhd)
         35622 MiB available memory on the node where the printing process lives
------------------
     c_bands:  2 eigenvalues not converged
     c_bands:  2 eigenvalues not converged
     c_bands:  2 eigenvalues not converged
     c_bands:  1 eigenvalues not converged
     c_bands:  2 eigenvalues not converged
     ethr =  5.20E-08,  avg # of iterations =  9.4

     total cpu time spent up to now is     4867.6 secs

     total energy              =    -517.48245266 Ry
     estimated scf accuracy    <       0.00031827 Ry

     total magnetization       =     0.90 Bohr mag/cell
     absolute magnetization    =     0.92 Bohr mag/cell

     iteration # 25     ecut=    93.00 Ry     beta= 0.50
     Davidson diagonalization with overlap

---- Real-time Memory Report at c_bands before calling an iterative solver
           114 MiB given to the printing process from OS
             0 MiB allocation reported by mallinfo(arena+hblkhd)
         35619 MiB available memory on the node where the printing process lives
------------------
     c_bands:  2 eigenvalues not converged
     c_bands:  2 eigenvalues not converged
     c_bands:  2 eigenvalues not converged
     c_bands:  1 eigenvalues not converged
     c_bands:  2 eigenvalues not converged
     ethr =  5.20E-08,  avg # of iterations =  9.9

     total cpu time spent up to now is     5058.6 secs

     total energy              =    -517.48239935 Ry
     estimated scf accuracy    <       0.00012410 Ry

     total magnetization       =     0.93 Bohr mag/cell
     absolute magnetization    =     0.96 Bohr mag/cell

     iteration # 26     ecut=    93.00 Ry     beta= 0.50
     Davidson diagonalization with overlap

---- Real-time Memory Report at c_bands before calling an iterative solver
           114 MiB given to the printing process from OS
             0 MiB allocation reported by mallinfo(arena+hblkhd)
         35542 MiB available memory on the node where the printing process lives
------------------
     c_bands:  2 eigenvalues not converged
     c_bands:  1 eigenvalues not converged
     c_bands:  2 eigenvalues not converged
     ethr =  5.20E-08,  avg # of iterations = 11.4

     total cpu time spent up to now is     5287.2 secs

     total energy              =    -517.48245454 Ry
     estimated scf accuracy    <       0.00023582 Ry

     total magnetization       =     0.75 Bohr mag/cell
     absolute magnetization    =     0.78 Bohr mag/cell

     iteration # 27     ecut=    93.00 Ry     beta= 0.50
     Davidson diagonalization with overlap

---- Real-time Memory Report at c_bands before calling an iterative solver
           115 MiB given to the printing process from OS
             0 MiB allocation reported by mallinfo(arena+hblkhd)
         35521 MiB available memory on the node where the printing process lives
------------------
     c_bands:  1 eigenvalues not converged
     c_bands:  1 eigenvalues not converged
     c_bands:  2 eigenvalues not converged
     c_bands:  1 eigenvalues not converged
     c_bands:  3 eigenvalues not converged
     c_bands:  4 eigenvalues not converged
     c_bands:  4 eigenvalues not converged
     c_bands:  3 eigenvalues not converged
     c_bands:  1 eigenvalues not converged
     ethr =  5.20E-08,  avg # of iterations = 15.8

     total cpu time spent up to now is     5542.6 secs

     total energy              =    -517.48250410 Ry
     estimated scf accuracy    <       0.00056039 Ry

     total magnetization       =     0.61 Bohr mag/cell
     absolute magnetization    =     0.70 Bohr mag/cell

     iteration # 28     ecut=    93.00 Ry     beta= 0.50
     Davidson diagonalization with overlap

---- Real-time Memory Report at c_bands before calling an iterative solver
           115 MiB given to the printing process from OS
             0 MiB allocation reported by mallinfo(arena+hblkhd)
         37018 MiB available memory on the node where the printing process lives
------------------
     c_bands:  1 eigenvalues not converged
     c_bands:  2 eigenvalues not converged
     c_bands:  1 eigenvalues not converged
     c_bands:  3 eigenvalues not converged
     c_bands:  4 eigenvalues not converged
     c_bands:  2 eigenvalues not converged
     c_bands:  1 eigenvalues not converged
     ethr =  5.20E-08,  avg # of iterations = 16.2

     total cpu time spent up to now is     5788.5 secs

     total energy              =    -517.48262778 Ry
     estimated scf accuracy    <       0.00054861 Ry

     total magnetization       =     0.50 Bohr mag/cell
     absolute magnetization    =     0.68 Bohr mag/cell

     iteration # 29     ecut=    93.00 Ry     beta= 0.50
     Davidson diagonalization with overlap

---- Real-time Memory Report at c_bands before calling an iterative solver
           115 MiB given to the printing process from OS
             0 MiB allocation reported by mallinfo(arena+hblkhd)
         37019 MiB available memory on the node where the printing process lives
------------------
     c_bands:  2 eigenvalues not converged
     c_bands:  1 eigenvalues not converged
     c_bands:  2 eigenvalues not converged
     c_bands:  1 eigenvalues not converged
     c_bands:  1 eigenvalues not converged
     c_bands:  1 eigenvalues not converged
     ethr =  5.20E-08,  avg # of iterations = 15.3

     total cpu time spent up to now is     6023.1 secs

     total energy              =    -517.48245517 Ry
     estimated scf accuracy    <       0.00211918 Ry

     total magnetization       =     0.39 Bohr mag/cell
     absolute magnetization    =     0.63 Bohr mag/cell

     iteration # 30     ecut=    93.00 Ry     beta= 0.50
     Davidson diagonalization with overlap

---- Real-time Memory Report at c_bands before calling an iterative solver
           115 MiB given to the printing process from OS
             0 MiB allocation reported by mallinfo(arena+hblkhd)
         37021 MiB available memory on the node where the printing process lives
------------------
     c_bands:  1 eigenvalues not converged
     c_bands:  2 eigenvalues not converged
     c_bands:  1 eigenvalues not converged
     c_bands:  3 eigenvalues not converged
     c_bands:  2 eigenvalues not converged
     c_bands:  1 eigenvalues not converged
     c_bands:  4 eigenvalues not converged
     c_bands:  2 eigenvalues not converged
     c_bands:  3 eigenvalues not converged
     c_bands:  3 eigenvalues not converged
     c_bands:  1 eigenvalues not converged
     ethr =  5.20E-08,  avg # of iterations = 15.6

     total cpu time spent up to now is     6262.8 secs

     total energy              =    -517.48227909 Ry
     estimated scf accuracy    <       0.00004471 Ry

     total magnetization       =     0.22 Bohr mag/cell
     absolute magnetization    =     0.68 Bohr mag/cell

     iteration # 31     ecut=    93.00 Ry     beta= 0.50
     Davidson diagonalization with overlap

---- Real-time Memory Report at c_bands before calling an iterative solver
           116 MiB given to the printing process from OS
             0 MiB allocation reported by mallinfo(arena+hblkhd)
         37020 MiB available memory on the node where the printing process lives
------------------
     c_bands:  1 eigenvalues not converged
     c_bands:  4 eigenvalues not converged
     c_bands:  3 eigenvalues not converged
     c_bands:  2 eigenvalues not converged
     c_bands:  3 eigenvalues not converged
     c_bands:  3 eigenvalues not converged
     c_bands:  1 eigenvalues not converged
     c_bands:  1 eigenvalues not converged
     c_bands:  2 eigenvalues not converged
     c_bands:  3 eigenvalues not converged
     c_bands:  2 eigenvalues not converged
     c_bands:  3 eigenvalues not converged
     c_bands:  2 eigenvalues not converged
     ethr =  5.20E-08,  avg # of iterations = 17.8

     total cpu time spent up to now is     6536.7 secs

     total energy              =    -517.48256251 Ry
     estimated scf accuracy    <       0.00001942 Ry

     total magnetization       =     0.43 Bohr mag/cell
     absolute magnetization    =     0.59 Bohr mag/cell

     iteration # 32     ecut=    93.00 Ry     beta= 0.50
     Davidson diagonalization with overlap

---- Real-time Memory Report at c_bands before calling an iterative solver
           116 MiB given to the printing process from OS
             0 MiB allocation reported by mallinfo(arena+hblkhd)
         37014 MiB available memory on the node where the printing process lives
------------------
     c_bands:  1 eigenvalues not converged
     c_bands:  2 eigenvalues not converged
     c_bands:  4 eigenvalues not converged
     c_bands:  4 eigenvalues not converged
     c_bands:  4 eigenvalues not converged
     c_bands:  3 eigenvalues not converged
     c_bands:  4 eigenvalues not converged
     c_bands:  1 eigenvalues not converged
     c_bands:  2 eigenvalues not converged
     c_bands:  2 eigenvalues not converged
     c_bands:  2 eigenvalues not converged
     c_bands:  1 eigenvalues not converged
     ethr =  3.47E-08,  avg # of iterations = 17.8

     total cpu time spent up to now is     6809.5 secs

     total energy              =    -517.48272934 Ry
     estimated scf accuracy    <       0.00024085 Ry

     total magnetization       =     0.46 Bohr mag/cell
     absolute magnetization    =     0.78 Bohr mag/cell

     iteration # 33     ecut=    93.00 Ry     beta= 0.50
     Davidson diagonalization with overlap

---- Real-time Memory Report at c_bands before calling an iterative solver
           116 MiB given to the printing process from OS
             0 MiB allocation reported by mallinfo(arena+hblkhd)
         37006 MiB available memory on the node where the printing process lives
------------------
     c_bands:  2 eigenvalues not converged
     c_bands:  1 eigenvalues not converged
     c_bands:  2 eigenvalues not converged
     c_bands:  1 eigenvalues not converged
     c_bands:  1 eigenvalues not converged
     c_bands:  2 eigenvalues not converged
     ethr =  3.47E-08,  avg # of iterations = 14.8

     total cpu time spent up to now is     7012.0 secs

     total energy              =    -517.48255843 Ry
     estimated scf accuracy    <       0.00032652 Ry

     total magnetization       =     0.44 Bohr mag/cell
     absolute magnetization    =     0.83 Bohr mag/cell

     iteration # 34     ecut=    93.00 Ry     beta= 0.50
     Davidson diagonalization with overlap

---- Real-time Memory Report at c_bands before calling an iterative solver
           116 MiB given to the printing process from OS
             0 MiB allocation reported by mallinfo(arena+hblkhd)
         37002 MiB available memory on the node where the printing process lives
------------------
     c_bands:  3 eigenvalues not converged
     c_bands:  1 eigenvalues not converged
     c_bands:  3 eigenvalues not converged
     c_bands:  3 eigenvalues not converged
     c_bands:  3 eigenvalues not converged
     c_bands:  1 eigenvalues not converged
     c_bands:  1 eigenvalues not converged
     c_bands:  3 eigenvalues not converged
     c_bands:  4 eigenvalues not converged
     c_bands:  4 eigenvalues not converged
     c_bands:  3 eigenvalues not converged
     c_bands:  4 eigenvalues not converged
     c_bands:  5 eigenvalues not converged
     ethr =  3.47E-08,  avg # of iterations = 19.1

     total cpu time spent up to now is     7313.2 secs

     total energy              =    -517.48263308 Ry
     estimated scf accuracy    <       0.00033025 Ry

     total magnetization       =     0.28 Bohr mag/cell
     absolute magnetization    =     0.97 Bohr mag/cell

     iteration # 35     ecut=    93.00 Ry     beta= 0.50
     Davidson diagonalization with overlap

---- Real-time Memory Report at c_bands before calling an iterative solver
           116 MiB given to the printing process from OS
             0 MiB allocation reported by mallinfo(arena+hblkhd)
         37013 MiB available memory on the node where the printing process lives
------------------
     c_bands:  2 eigenvalues not converged
     c_bands:  2 eigenvalues not converged
     c_bands:  2 eigenvalues not converged
     c_bands:  4 eigenvalues not converged
     c_bands:  1 eigenvalues not converged
     c_bands:  1 eigenvalues not converged
     c_bands:  1 eigenvalues not converged
     c_bands:  2 eigenvalues not converged
     c_bands:  2 eigenvalues not converged
     c_bands:  2 eigenvalues not converged
     c_bands:  1 eigenvalues not converged
     c_bands:  1 eigenvalues not converged
     ethr =  3.47E-08,  avg # of iterations = 17.6

     total cpu time spent up to now is     7583.9 secs

     total energy              =    -517.48284508 Ry
     estimated scf accuracy    <       0.00062675 Ry

     total magnetization       =     0.11 Bohr mag/cell
     absolute magnetization    =     0.78 Bohr mag/cell

     iteration # 36     ecut=    93.00 Ry     beta= 0.50
     Davidson diagonalization with overlap

---- Real-time Memory Report at c_bands before calling an iterative solver
           116 MiB given to the printing process from OS
             0 MiB allocation reported by mallinfo(arena+hblkhd)
         37024 MiB available memory on the node where the printing process lives
------------------
     c_bands:  1 eigenvalues not converged
     c_bands:  2 eigenvalues not converged
     c_bands:  1 eigenvalues not converged
     c_bands:  1 eigenvalues not converged
     c_bands:  3 eigenvalues not converged
     c_bands:  1 eigenvalues not converged
     c_bands:  2 eigenvalues not converged
     c_bands:  2 eigenvalues not converged
     c_bands:  1 eigenvalues not converged
     ethr =  3.47E-08,  avg # of iterations = 17.2

     total cpu time spent up to now is     7822.7 secs

     total energy              =    -517.48287363 Ry
     estimated scf accuracy    <       0.00098270 Ry

     total magnetization       =     0.10 Bohr mag/cell
     absolute magnetization    =     0.87 Bohr mag/cell

     iteration # 37     ecut=    93.00 Ry     beta= 0.50
     Davidson diagonalization with overlap

---- Real-time Memory Report at c_bands before calling an iterative solver
           117 MiB given to the printing process from OS
             0 MiB allocation reported by mallinfo(arena+hblkhd)
         37015 MiB available memory on the node where the printing process lives
------------------
     c_bands:  1 eigenvalues not converged
     c_bands:  2 eigenvalues not converged
     c_bands:  2 eigenvalues not converged
     c_bands:  2 eigenvalues not converged
     ethr =  3.47E-08,  avg # of iterations = 11.6

     total cpu time spent up to now is     8003.5 secs

     total energy              =    -517.48281625 Ry
     estimated scf accuracy    <       0.00052822 Ry

     total magnetization       =     0.07 Bohr mag/cell
     absolute magnetization    =     0.92 Bohr mag/cell

     iteration # 38     ecut=    93.00 Ry     beta= 0.50
     Davidson diagonalization with overlap

---- Real-time Memory Report at c_bands before calling an iterative solver
           117 MiB given to the printing process from OS
             0 MiB allocation reported by mallinfo(arena+hblkhd)
         36998 MiB available memory on the node where the printing process lives
------------------
     c_bands:  3 eigenvalues not converged
     c_bands:  2 eigenvalues not converged
     c_bands:  1 eigenvalues not converged
     c_bands:  2 eigenvalues not converged
     c_bands:  2 eigenvalues not converged
     c_bands:  1 eigenvalues not converged
     ethr =  3.47E-08,  avg # of iterations = 16.6

     total cpu time spent up to now is     8246.5 secs

     total energy              =    -517.48061037 Ry
     estimated scf accuracy    <       0.00055656 Ry

     total magnetization       =     0.08 Bohr mag/cell
     absolute magnetization    =     0.81 Bohr mag/cell

     iteration # 39     ecut=    93.00 Ry     beta= 0.50
     Davidson diagonalization with overlap

---- Real-time Memory Report at c_bands before calling an iterative solver
           117 MiB given to the printing process from OS
             0 MiB allocation reported by mallinfo(arena+hblkhd)
         36988 MiB available memory on the node where the printing process lives
------------------
     c_bands:  4 eigenvalues not converged
     c_bands:  5 eigenvalues not converged
     c_bands:  1 eigenvalues not converged
     c_bands:  1 eigenvalues not converged
     c_bands:  2 eigenvalues not converged
     c_bands:  1 eigenvalues not converged
     c_bands:  3 eigenvalues not converged
     c_bands:  1 eigenvalues not converged
     c_bands:  4 eigenvalues not converged
     c_bands:  5 eigenvalues not converged
     c_bands:  2 eigenvalues not converged
     c_bands:  2 eigenvalues not converged
     c_bands:  5 eigenvalues not converged
     ethr =  3.47E-08,  avg # of iterations = 26.2

     total cpu time spent up to now is     8662.7 secs

     total energy              =    -517.48213660 Ry
     estimated scf accuracy    <       0.00050741 Ry

     total magnetization       =    -0.01 Bohr mag/cell
     absolute magnetization    =     1.59 Bohr mag/cell

     iteration # 40     ecut=    93.00 Ry     beta= 0.50
     Davidson diagonalization with overlap

---- Real-time Memory Report at c_bands before calling an iterative solver
           117 MiB given to the printing process from OS
             0 MiB allocation reported by mallinfo(arena+hblkhd)
         37007 MiB available memory on the node where the printing process lives
------------------
     c_bands:  3 eigenvalues not converged
     c_bands:  5 eigenvalues not converged
     c_bands:  3 eigenvalues not converged
     c_bands:  5 eigenvalues not converged
     c_bands:  3 eigenvalues not converged
     c_bands:  4 eigenvalues not converged
     c_bands:  3 eigenvalues not converged
     c_bands:  1 eigenvalues not converged
     c_bands:  2 eigenvalues not converged
     c_bands:  4 eigenvalues not converged
     c_bands:  4 eigenvalues not converged
     c_bands:  4 eigenvalues not converged
     c_bands:  4 eigenvalues not converged
     c_bands:  5 eigenvalues not converged
     ethr =  3.47E-08,  avg # of iterations = 20.4

     total cpu time spent up to now is     9001.6 secs

     total energy              =    -517.48382830 Ry
     estimated scf accuracy    <       0.00043347 Ry

     total magnetization       =     0.53 Bohr mag/cell
     absolute magnetization    =     2.17 Bohr mag/cell

     iteration # 41     ecut=    93.00 Ry     beta= 0.50
     Davidson diagonalization with overlap

---- Real-time Memory Report at c_bands before calling an iterative solver
           117 MiB given to the printing process from OS
             0 MiB allocation reported by mallinfo(arena+hblkhd)
         36974 MiB available memory on the node where the printing process lives
------------------
     c_bands:  1 eigenvalues not converged
     c_bands:  1 eigenvalues not converged
     c_bands:  1 eigenvalues not converged
     c_bands:  1 eigenvalues not converged
     c_bands:  3 eigenvalues not converged
     c_bands:  2 eigenvalues not converged
     c_bands:  1 eigenvalues not converged
     c_bands:  1 eigenvalues not converged
     ethr =  3.47E-08,  avg # of iterations = 16.4

     negative rho (up, down):  2.434E-04 0.000E+00

     total cpu time spent up to now is     9234.3 secs

     total energy              =    -517.48185694 Ry
     estimated scf accuracy    <       0.00028657 Ry

     total magnetization       =     0.49 Bohr mag/cell
     absolute magnetization    =     2.23 Bohr mag/cell

     iteration # 42     ecut=    93.00 Ry     beta= 0.50
     Davidson diagonalization with overlap

---- Real-time Memory Report at c_bands before calling an iterative solver
           117 MiB given to the printing process from OS
             0 MiB allocation reported by mallinfo(arena+hblkhd)
         36978 MiB available memory on the node where the printing process lives
------------------
     c_bands:  4 eigenvalues not converged
     c_bands:  2 eigenvalues not converged
     c_bands:  2 eigenvalues not converged
     c_bands:  4 eigenvalues not converged
     c_bands:  2 eigenvalues not converged
     c_bands:  4 eigenvalues not converged
     c_bands:  3 eigenvalues not converged
     c_bands:  1 eigenvalues not converged
     c_bands:  2 eigenvalues not converged
     c_bands:  5 eigenvalues not converged
     c_bands:  1 eigenvalues not converged
     c_bands:  4 eigenvalues not converged
     c_bands:  2 eigenvalues not converged
     c_bands:  5 eigenvalues not converged
     c_bands:  5 eigenvalues not converged
     ethr =  3.47E-08,  avg # of iterations = 22.3

     negative rho (up, down):  5.696E-05 0.000E+00

     total cpu time spent up to now is     9601.1 secs

     total energy              =    -517.48394904 Ry
     estimated scf accuracy    <       0.00312001 Ry

     total magnetization       =     0.24 Bohr mag/cell
     absolute magnetization    =     2.77 Bohr mag/cell

     iteration # 43     ecut=    93.00 Ry     beta= 0.50
     Davidson diagonalization with overlap

---- Real-time Memory Report at c_bands before calling an iterative solver
           117 MiB given to the printing process from OS
             0 MiB allocation reported by mallinfo(arena+hblkhd)
         36980 MiB available memory on the node where the printing process lives
------------------
     c_bands:  1 eigenvalues not converged
     c_bands:  2 eigenvalues not converged
     c_bands:  2 eigenvalues not converged
     ethr =  3.47E-08,  avg # of iterations = 13.2

     total cpu time spent up to now is     9801.6 secs

     total energy              =    -517.47779239 Ry
     estimated scf accuracy    <       0.00124650 Ry

     total magnetization       =     0.38 Bohr mag/cell
     absolute magnetization    =     2.79 Bohr mag/cell

     iteration # 44     ecut=    93.00 Ry     beta= 0.50
     Davidson diagonalization with overlap

---- Real-time Memory Report at c_bands before calling an iterative solver
           117 MiB given to the printing process from OS
             0 MiB allocation reported by mallinfo(arena+hblkhd)
         36960 MiB available memory on the node where the printing process lives
------------------
     c_bands:  3 eigenvalues not converged
     c_bands:  5 eigenvalues not converged
     c_bands:  2 eigenvalues not converged
     c_bands:  2 eigenvalues not converged
     c_bands:  1 eigenvalues not converged
     c_bands:  5 eigenvalues not converged
     c_bands:  2 eigenvalues not converged
     c_bands:  3 eigenvalues not converged
     c_bands:  1 eigenvalues not converged
     ethr =  3.47E-08,  avg # of iterations = 30.1

     total cpu time spent up to now is    10283.2 secs

     total energy              =    -517.48339760 Ry
     estimated scf accuracy    <       0.00022298 Ry

     total magnetization       =     0.30 Bohr mag/cell
     absolute magnetization    =     1.59 Bohr mag/cell

     iteration # 45     ecut=    93.00 Ry     beta= 0.50
     Davidson diagonalization with overlap

---- Real-time Memory Report at c_bands before calling an iterative solver
           118 MiB given to the printing process from OS
             0 MiB allocation reported by mallinfo(arena+hblkhd)
         36964 MiB available memory on the node where the printing process lives
------------------
     c_bands:  2 eigenvalues not converged
     c_bands:  1 eigenvalues not converged
     c_bands:  2 eigenvalues not converged
     c_bands:  1 eigenvalues not converged
     c_bands:  2 eigenvalues not converged
     c_bands:  1 eigenvalues not converged
     ethr =  3.47E-08,  avg # of iterations = 15.2

     total cpu time spent up to now is    10519.7 secs

     total energy              =    -517.48337740 Ry
     estimated scf accuracy    <       0.00041811 Ry

     total magnetization       =     0.33 Bohr mag/cell
     absolute magnetization    =     1.64 Bohr mag/cell

     iteration # 46     ecut=    93.00 Ry     beta= 0.50
     Davidson diagonalization with overlap

---- Real-time Memory Report at c_bands before calling an iterative solver
           118 MiB given to the printing process from OS
             0 MiB allocation reported by mallinfo(arena+hblkhd)
         36988 MiB available memory on the node where the printing process lives
------------------
     ethr =  3.47E-08,  avg # of iterations = 10.6

     total cpu time spent up to now is    10694.8 secs

     total energy              =    -517.48298574 Ry
     estimated scf accuracy    <       0.00055705 Ry

     total magnetization       =     0.47 Bohr mag/cell
     absolute magnetization    =     1.70 Bohr mag/cell

     iteration # 47     ecut=    93.00 Ry     beta= 0.50
     Davidson diagonalization with overlap

---- Real-time Memory Report at c_bands before calling an iterative solver
           118 MiB given to the printing process from OS
             0 MiB allocation reported by mallinfo(arena+hblkhd)
         36995 MiB available memory on the node where the printing process lives
------------------
     c_bands:  2 eigenvalues not converged
     c_bands:  4 eigenvalues not converged
     c_bands:  3 eigenvalues not converged
     c_bands:  2 eigenvalues not converged
     c_bands:  4 eigenvalues not converged
     c_bands:  2 eigenvalues not converged
     c_bands:  1 eigenvalues not converged
     c_bands:  2 eigenvalues not converged
     c_bands:  2 eigenvalues not converged
     c_bands:  3 eigenvalues not converged
     c_bands:  2 eigenvalues not converged
     c_bands:  4 eigenvalues not converged
     c_bands:  3 eigenvalues not converged
     ethr =  3.47E-08,  avg # of iterations = 17.9

     total cpu time spent up to now is    10971.4 secs

     total energy              =    -517.48210487 Ry
     estimated scf accuracy    <       0.00090847 Ry

     total magnetization       =     0.62 Bohr mag/cell
     absolute magnetization    =     1.58 Bohr mag/cell

     iteration # 48     ecut=    93.00 Ry     beta= 0.50
     Davidson diagonalization with overlap

---- Real-time Memory Report at c_bands before calling an iterative solver
           118 MiB given to the printing process from OS
             0 MiB allocation reported by mallinfo(arena+hblkhd)
         36994 MiB available memory on the node where the printing process lives
------------------
     c_bands:  1 eigenvalues not converged
     c_bands:  5 eigenvalues not converged
     c_bands:  2 eigenvalues not converged
     c_bands:  3 eigenvalues not converged
     c_bands:  1 eigenvalues not converged
     c_bands:  2 eigenvalues not converged
     c_bands:  4 eigenvalues not converged
     c_bands:  5 eigenvalues not converged
     c_bands:  2 eigenvalues not converged
     c_bands:  1 eigenvalues not converged
     ethr =  3.47E-08,  avg # of iterations = 25.9

     total cpu time spent up to now is    11407.9 secs

     total energy              =    -517.48322003 Ry
     estimated scf accuracy    <       0.00185867 Ry

     total magnetization       =     0.87 Bohr mag/cell
     absolute magnetization    =     2.27 Bohr mag/cell

     iteration # 49     ecut=    93.00 Ry     beta= 0.50
     Davidson diagonalization with overlap

---- Real-time Memory Report at c_bands before calling an iterative solver
           118 MiB given to the printing process from OS
             0 MiB allocation reported by mallinfo(arena+hblkhd)
         36761 MiB available memory on the node where the printing process lives
------------------
     c_bands:  2 eigenvalues not converged
     c_bands:  3 eigenvalues not converged
     c_bands:  3 eigenvalues not converged
     c_bands:  3 eigenvalues not converged
     c_bands:  4 eigenvalues not converged
     c_bands:  3 eigenvalues not converged
     c_bands:  2 eigenvalues not converged
     c_bands:  3 eigenvalues not converged
     c_bands:  4 eigenvalues not converged
     c_bands:  4 eigenvalues not converged
     c_bands:  4 eigenvalues not converged
     c_bands:  2 eigenvalues not converged
     c_bands:  3 eigenvalues not converged
     c_bands:  5 eigenvalues not converged
     ethr =  3.47E-08,  avg # of iterations = 19.1

     total cpu time spent up to now is    11828.1 secs

     total energy              =    -517.48362692 Ry
     estimated scf accuracy    <       0.00001565 Ry

     total magnetization       =     0.54 Bohr mag/cell
     absolute magnetization    =     2.39 Bohr mag/cell

     iteration # 50     ecut=    93.00 Ry     beta= 0.50
     Davidson diagonalization with overlap

---- Real-time Memory Report at c_bands before calling an iterative solver
           118 MiB given to the printing process from OS
             0 MiB allocation reported by mallinfo(arena+hblkhd)
         36751 MiB available memory on the node where the printing process lives
------------------
     c_bands:  4 eigenvalues not converged
     c_bands:  4 eigenvalues not converged
     c_bands:  2 eigenvalues not converged
     c_bands:  4 eigenvalues not converged
     c_bands:  4 eigenvalues not converged
     c_bands:  4 eigenvalues not converged
     c_bands:  3 eigenvalues not converged
     c_bands:  1 eigenvalues not converged
     c_bands:  3 eigenvalues not converged
     c_bands:  2 eigenvalues not converged
     c_bands:  5 eigenvalues not converged
     c_bands:  4 eigenvalues not converged
     c_bands:  4 eigenvalues not converged
     c_bands:  2 eigenvalues not converged
     ethr =  2.80E-08,  avg # of iterations = 19.6

[...]

---- Real-time Memory Report at c_bands before calling an iterative solver
           134 MiB given to the printing process from OS
             0 MiB allocation reported by mallinfo(arena+hblkhd)
         32249 MiB available memory on the node where the printing process lives
------------------
     c_bands:  5 eigenvalues not converged
     c_bands:  2 eigenvalues not converged
     c_bands:  2 eigenvalues not converged
     c_bands:  2 eigenvalues not converged
     c_bands:  4 eigenvalues not converged
     c_bands:  2 eigenvalues not converged
     c_bands:  3 eigenvalues not converged
     c_bands:  5 eigenvalues not converged
     c_bands:  4 eigenvalues not converged
     c_bands:  1 eigenvalues not converged
     c_bands:  4 eigenvalues not converged
     c_bands:  2 eigenvalues not converged
     c_bands:  5 eigenvalues not converged
     c_bands:  5 eigenvalues not converged
     ethr =  5.18E-11,  avg # of iterations = 27.5

     total cpu time spent up to now is    57093.5 secs

     total energy              =    -517.48241442 Ry
     estimated scf accuracy    <       0.00000009 Ry

     total magnetization       =     0.02 Bohr mag/cell
     absolute magnetization    =     0.02 Bohr mag/cell

     iteration # 88     ecut=    93.00 Ry     beta= 0.50
     Davidson diagonalization with overlap

---- Real-time Memory Report at c_bands before calling an iterative solver
           134 MiB given to the printing process from OS
             0 MiB allocation reported by mallinfo(arena+hblkhd)
         32433 MiB available memory on the node where the printing process lives
------------------
     c_bands:  4 eigenvalues not converged
     c_bands:  2 eigenvalues not converged
     c_bands:  4 eigenvalues not converged
     c_bands:  1 eigenvalues not converged
     c_bands:  3 eigenvalues not converged
     c_bands:  2 eigenvalues not converged
     c_bands:  2 eigenvalues not converged
     c_bands:  4 eigenvalues not converged
     c_bands:  5 eigenvalues not converged
     c_bands:  3 eigenvalues not converged
     c_bands:  2 eigenvalues not converged
     c_bands:  4 eigenvalues not converged
     c_bands:  1 eigenvalues not converged
     c_bands:  2 eigenvalues not converged
     c_bands:  5 eigenvalues not converged
     c_bands:  4 eigenvalues not converged
     c_bands:  5 eigenvalues not converged
     ethr =  5.18E-11,  avg # of iterations = 22.1

     total cpu time spent up to now is    57109.1 secs

     total energy              =    -517.48240581 Ry
     estimated scf accuracy    <       0.00000007 Ry

     total magnetization       =     0.01 Bohr mag/cell
     absolute magnetization    =     0.01 Bohr mag/cell

     iteration # 89     ecut=    93.00 Ry     beta= 0.50
     Davidson diagonalization with overlap

---- Real-time Memory Report at c_bands before calling an iterative solver
           134 MiB given to the printing process from OS
             0 MiB allocation reported by mallinfo(arena+hblkhd)
         33132 MiB available memory on the node where the printing process lives
------------------
     c_bands:  4 eigenvalues not converged
     c_bands:  2 eigenvalues not converged
     c_bands:  1 eigenvalues not converged
     c_bands:  2 eigenvalues not converged
     c_bands:  3 eigenvalues not converged
     c_bands:  5 eigenvalues not converged
     c_bands:  3 eigenvalues not converged
     c_bands:  2 eigenvalues not converged
     c_bands:  1 eigenvalues not converged
     c_bands:  2 eigenvalues not converged
     c_bands:  4 eigenvalues not converged
     c_bands:  5 eigenvalues not converged
     ethr =  5.18E-11,  avg # of iterations = 32.4

     total cpu time spent up to now is    57130.4 secs

     total energy              =    -517.48241577 Ry
     estimated scf accuracy    <          5.4E-09 Ry

     total magnetization       =     0.00 Bohr mag/cell
     absolute magnetization    =     0.05 Bohr mag/cell

     iteration # 90     ecut=    93.00 Ry     beta= 0.50
     Davidson diagonalization with overlap

---- Real-time Memory Report at c_bands before calling an iterative solver
           134 MiB given to the printing process from OS
             0 MiB allocation reported by mallinfo(arena+hblkhd)
         34347 MiB available memory on the node where the printing process lives
------------------
     c_bands:  4 eigenvalues not converged
     c_bands:  3 eigenvalues not converged
     c_bands:  2 eigenvalues not converged
     c_bands:  4 eigenvalues not converged
     c_bands:  4 eigenvalues not converged
     c_bands:  3 eigenvalues not converged
     c_bands:  3 eigenvalues not converged
     c_bands:  2 eigenvalues not converged
     c_bands:  2 eigenvalues not converged
     c_bands:  2 eigenvalues not converged
     c_bands:  4 eigenvalues not converged
     c_bands:  4 eigenvalues not converged
     c_bands:  3 eigenvalues not converged
     c_bands:  5 eigenvalues not converged
     ethr =  9.71E-12,  avg # of iterations = 18.6

     total cpu time spent up to now is    57142.1 secs

     total energy              =    -517.48241482 Ry
     estimated scf accuracy    <       0.00000002 Ry

     total magnetization       =    -0.00 Bohr mag/cell
     absolute magnetization    =     0.04 Bohr mag/cell

     iteration # 91     ecut=    93.00 Ry     beta= 0.50
     Davidson diagonalization with overlap

---- Real-time Memory Report at c_bands before calling an iterative solver
           134 MiB given to the printing process from OS
             0 MiB allocation reported by mallinfo(arena+hblkhd)
         34356 MiB available memory on the node where the printing process lives
------------------
     c_bands:  3 eigenvalues not converged
     c_bands:  5 eigenvalues not converged
     c_bands:  2 eigenvalues not converged
     c_bands:  1 eigenvalues not converged
     c_bands:  2 eigenvalues not converged
     c_bands:  2 eigenvalues not converged
     c_bands:  5 eigenvalues not converged
     c_bands:  3 eigenvalues not converged
     c_bands:  5 eigenvalues not converged
     c_bands:  2 eigenvalues not converged
     c_bands:  2 eigenvalues not converged
     c_bands:  1 eigenvalues not converged
     ethr =  9.71E-12,  avg # of iterations = 31.1

     total cpu time spent up to now is    57161.8 secs

     total energy              =    -517.48241579 Ry
     estimated scf accuracy    <       0.00000001 Ry

     total magnetization       =     0.00 Bohr mag/cell
     absolute magnetization    =     0.03 Bohr mag/cell

     iteration # 92     ecut=    93.00 Ry     beta= 0.50
     Davidson diagonalization with overlap

---- Real-time Memory Report at c_bands before calling an iterative solver
           134 MiB given to the printing process from OS
             0 MiB allocation reported by mallinfo(arena+hblkhd)
         34366 MiB available memory on the node where the printing process lives
------------------
     c_bands:  5 eigenvalues not converged
     c_bands:  4 eigenvalues not converged
     c_bands:  5 eigenvalues not converged
     c_bands:  5 eigenvalues not converged
     c_bands:  4 eigenvalues not converged
     c_bands:  5 eigenvalues not converged
     c_bands:  5 eigenvalues not converged
     c_bands:  5 eigenvalues not converged
     c_bands:  2 eigenvalues not converged
     c_bands:  2 eigenvalues not converged
     c_bands:  4 eigenvalues not converged
     c_bands:  2 eigenvalues not converged
     c_bands:  5 eigenvalues not converged
     c_bands:  5 eigenvalues not converged
     c_bands:  5 eigenvalues not converged
     ethr =  9.71E-12,  avg # of iterations = 20.0

     total cpu time spent up to now is    57174.8 secs

     total energy              =    -517.48241589 Ry
     estimated scf accuracy    <       0.00000001 Ry

     total magnetization       =     0.00 Bohr mag/cell
     absolute magnetization    =     0.02 Bohr mag/cell

     iteration # 93     ecut=    93.00 Ry     beta= 0.50
     Davidson diagonalization with overlap

---- Real-time Memory Report at c_bands before calling an iterative solver
           134 MiB given to the printing process from OS
             0 MiB allocation reported by mallinfo(arena+hblkhd)
         34366 MiB available memory on the node where the printing process lives
------------------
     c_bands:  4 eigenvalues not converged
     c_bands:  1 eigenvalues not converged
     c_bands:  2 eigenvalues not converged
     c_bands:  3 eigenvalues not converged
     c_bands:  3 eigenvalues not converged
     c_bands:  1 eigenvalues not converged
     c_bands:  1 eigenvalues not converged
     c_bands:  2 eigenvalues not converged
     c_bands:  1 eigenvalues not converged
     c_bands:  4 eigenvalues not converged
     ethr =  9.71E-12,  avg # of iterations = 16.7

     total cpu time spent up to now is    57184.1 secs

     total energy              =    -517.48241593 Ry
     estimated scf accuracy    <       0.00000001 Ry

     total magnetization       =     0.00 Bohr mag/cell
     absolute magnetization    =     0.02 Bohr mag/cell

     iteration # 94     ecut=    93.00 Ry     beta= 0.50
     Davidson diagonalization with overlap

---- Real-time Memory Report at c_bands before calling an iterative solver
           134 MiB given to the printing process from OS
             0 MiB allocation reported by mallinfo(arena+hblkhd)
         34358 MiB available memory on the node where the printing process lives
------------------
     c_bands:  2 eigenvalues not converged
     c_bands:  2 eigenvalues not converged
     c_bands:  2 eigenvalues not converged
     c_bands:  2 eigenvalues not converged
     c_bands:  1 eigenvalues not converged
     ethr =  9.71E-12,  avg # of iterations =  6.6

     total cpu time spent up to now is    57189.2 secs

     total energy              =    -517.48241597 Ry
     estimated scf accuracy    <       0.00000001 Ry

     total magnetization       =     0.00 Bohr mag/cell
     absolute magnetization    =     0.02 Bohr mag/cell

     iteration # 95     ecut=    93.00 Ry     beta= 0.50
     Davidson diagonalization with overlap

---- Real-time Memory Report at c_bands before calling an iterative solver
           134 MiB given to the printing process from OS
             0 MiB allocation reported by mallinfo(arena+hblkhd)
         34359 MiB available memory on the node where the printing process lives
------------------
     c_bands:  5 eigenvalues not converged
     c_bands:  1 eigenvalues not converged
     c_bands:  2 eigenvalues not converged
     c_bands:  1 eigenvalues not converged
     c_bands:  1 eigenvalues not converged
     c_bands:  1 eigenvalues not converged
     c_bands:  1 eigenvalues not converged
     c_bands:  2 eigenvalues not converged
     c_bands:  2 eigenvalues not converged
     c_bands:  2 eigenvalues not converged
     c_bands:  2 eigenvalues not converged
     ethr =  9.71E-12,  avg # of iterations = 17.1

     total cpu time spent up to now is    57198.9 secs

     total energy              =    -517.48241599 Ry
     estimated scf accuracy    <       0.00000004 Ry

     total magnetization       =     0.00 Bohr mag/cell
     absolute magnetization    =     0.02 Bohr mag/cell

     iteration # 96     ecut=    93.00 Ry     beta= 0.50
     Davidson diagonalization with overlap

---- Real-time Memory Report at c_bands before calling an iterative solver
           134 MiB given to the printing process from OS
             0 MiB allocation reported by mallinfo(arena+hblkhd)
         34359 MiB available memory on the node where the printing process lives
------------------
     c_bands:  5 eigenvalues not converged
     c_bands:  2 eigenvalues not converged
     c_bands:  1 eigenvalues not converged
     c_bands:  1 eigenvalues not converged
     c_bands:  2 eigenvalues not converged
     c_bands:  1 eigenvalues not converged
     c_bands:  1 eigenvalues not converged
     c_bands:  1 eigenvalues not converged
     c_bands:  1 eigenvalues not converged
     ethr =  9.71E-12,  avg # of iterations = 16.9

     total cpu time spent up to now is    57208.6 secs

     total energy              =    -517.48241602 Ry
     estimated scf accuracy    <       0.00000003 Ry

     total magnetization       =     0.00 Bohr mag/cell
     absolute magnetization    =     0.02 Bohr mag/cell

     iteration # 97     ecut=    93.00 Ry     beta= 0.50
     Davidson diagonalization with overlap

---- Real-time Memory Report at c_bands before calling an iterative solver
           134 MiB given to the printing process from OS
             0 MiB allocation reported by mallinfo(arena+hblkhd)
         34346 MiB available memory on the node where the printing process lives
------------------
     c_bands:  1 eigenvalues not converged
     c_bands:  2 eigenvalues not converged
     c_bands:  1 eigenvalues not converged
     c_bands:  2 eigenvalues not converged
     c_bands:  1 eigenvalues not converged
     ethr =  9.71E-12,  avg # of iterations =  6.5

     total cpu time spent up to now is    57213.5 secs

     total energy              =    -517.48241614 Ry
     estimated scf accuracy    <       0.00000006 Ry

     total magnetization       =     0.00 Bohr mag/cell
     absolute magnetization    =     0.02 Bohr mag/cell

     iteration # 98     ecut=    93.00 Ry     beta= 0.50
     Davidson diagonalization with overlap

---- Real-time Memory Report at c_bands before calling an iterative solver
           134 MiB given to the printing process from OS
             0 MiB allocation reported by mallinfo(arena+hblkhd)
         34358 MiB available memory on the node where the printing process lives
------------------
     c_bands:  1 eigenvalues not converged
     c_bands:  2 eigenvalues not converged
     c_bands:  1 eigenvalues not converged
     c_bands:  2 eigenvalues not converged
     c_bands:  1 eigenvalues not converged
     ethr =  9.71E-12,  avg # of iterations =  5.8

     total cpu time spent up to now is    57218.5 secs

     total energy              =    -517.48241623 Ry
     estimated scf accuracy    <       0.00000009 Ry

     total magnetization       =     0.00 Bohr mag/cell
     absolute magnetization    =     0.02 Bohr mag/cell

     iteration # 99     ecut=    93.00 Ry     beta= 0.50
     Davidson diagonalization with overlap

---- Real-time Memory Report at c_bands before calling an iterative solver
           134 MiB given to the printing process from OS
             0 MiB allocation reported by mallinfo(arena+hblkhd)
         34353 MiB available memory on the node where the printing process lives
------------------
     c_bands:  4 eigenvalues not converged
     c_bands:  2 eigenvalues not converged
     c_bands:  2 eigenvalues not converged
     c_bands:  3 eigenvalues not converged
     c_bands:  2 eigenvalues not converged
     c_bands:  1 eigenvalues not converged
     c_bands:  2 eigenvalues not converged
     c_bands:  2 eigenvalues not converged
     c_bands:  2 eigenvalues not converged
     c_bands:  4 eigenvalues not converged
     c_bands:  1 eigenvalues not converged
     ethr =  9.71E-12,  avg # of iterations = 17.2

     total cpu time spent up to now is    57228.8 secs

     total energy              =    -517.48241627 Ry
     estimated scf accuracy    <       0.00000010 Ry

     total magnetization       =     0.00 Bohr mag/cell
     absolute magnetization    =     0.02 Bohr mag/cell

     iteration #100     ecut=    93.00 Ry     beta= 0.50
     Davidson diagonalization with overlap

---- Real-time Memory Report at c_bands before calling an iterative solver
           134 MiB given to the printing process from OS
             0 MiB allocation reported by mallinfo(arena+hblkhd)
         34349 MiB available memory on the node where the printing process lives
------------------
     c_bands:  1 eigenvalues not converged
     c_bands:  2 eigenvalues not converged
     c_bands:  1 eigenvalues not converged
     c_bands:  2 eigenvalues not converged
     c_bands:  1 eigenvalues not converged
     c_bands:  1 eigenvalues not converged
     ethr =  9.71E-12,  avg # of iterations = 14.0

     total cpu time spent up to now is    57235.9 secs

     total energy              =    -517.48241630 Ry
     estimated scf accuracy    <       0.00000017 Ry

     total magnetization       =     0.00 Bohr mag/cell
     absolute magnetization    =     0.02 Bohr mag/cell

     End of self-consistent calculation

     convergence NOT achieved after 100 iterations: stopping

     Writing output data file ./Uranium.save/

     init_run     :     24.81s CPU     71.26s WALL (       2 calls)
     electrons    :  22904.16s CPU  56916.10s WALL (       5 calls)
     update_pot   :      7.67s CPU     24.20s WALL (       3 calls)
     forces       :     31.19s CPU    109.11s WALL (       4 calls)
     stress       :     30.66s CPU    103.17s WALL (       4 calls)

     Called by init_run:
     wfcinit      :     15.76s CPU     47.60s WALL (       2 calls)
     wfcinit:wfcr :     15.65s CPU     47.45s WALL (      40 calls)
     potinit      :      1.63s CPU      3.99s WALL (       2 calls)
     hinit0       :      5.33s CPU     14.25s WALL (       2 calls)

     Called by electrons:
     c_bands      :  20707.66s CPU  51080.76s WALL (     306 calls)
     sum_band     :   1492.97s CPU   3942.42s WALL (     306 calls)
     v_of_rho     :    100.38s CPU    261.84s WALL (     310 calls)
     v_h          :     24.26s CPU     67.01s WALL (     310 calls)
     v_xc         :     78.23s CPU    202.35s WALL (     318 calls)
     newd         :    137.90s CPU    368.86s WALL (     310 calls)
     mix_rho      :    401.92s CPU   1082.29s WALL (     306 calls)

     Called by c_bands:
     init_us_2    :      8.91s CPU     12.91s WALL (   12440 calls)
     cegterg      :  20390.94s CPU  50220.10s WALL (    6533 calls)

     Called by sum_band:
     sum_band:wei :      0.76s CPU      1.01s WALL (     306 calls)
     sum_band:loo :   1314.81s CPU   3473.64s WALL (     306 calls)
     sum_band:buf :      0.55s CPU      0.87s WALL (    6120 calls)
     sum_band:ini :      4.08s CPU      6.83s WALL (    6120 calls)
     sum_band:cal :    351.51s CPU    958.67s WALL (    6120 calls)
     sum_band:bec :      4.04s CPU      4.50s WALL (    6120 calls)
     addusdens    :    136.83s CPU    367.15s WALL (     306 calls)
     addusd:skk   :      0.10s CPU      0.29s WALL (     306 calls)
     addusd:dgemm :     39.38s CPU    129.93s WALL (     612 calls)
     addusd:qvan2 :     89.56s CPU    210.91s WALL (     612 calls)

     Called by *egterg:
     cdiaghg      :    341.66s CPU    482.33s WALL (   80878 calls)
     cegterg:over :   5141.93s CPU  12774.15s WALL (   74465 calls)
     cegterg:upda :     48.53s CPU     72.08s WALL (   74465 calls)
     cegterg:last :    168.52s CPU    364.64s WALL (   27292 calls)
     h_psi        :  11956.99s CPU  29461.46s WALL (   81038 calls)
     s_psi        :    168.16s CPU    357.14s WALL (   81038 calls)
     g_psi        :      2.89s CPU      4.24s WALL (   74465 calls)

     Called by h_psi:
     h_psi:calbec :   3287.58s CPU   8139.27s WALL (   81038 calls)
     vloc_psi     :   8496.34s CPU  21072.65s WALL (   81038 calls)
     add_vuspsi   :    170.33s CPU    246.24s WALL (   81038 calls)

     General routines
     calbec       :   3666.75s CPU   9195.47s WALL (   87558 calls)
     fft          :     55.58s CPU    145.70s WALL (    7905 calls)
     ffts         :      6.35s CPU     17.08s WALL (    1232 calls)
     fftw         :   9407.36s CPU  23525.64s WALL ( 2081772 calls)
     interpolate  :      8.62s CPU     22.29s WALL (     620 calls)
     davcio       :      0.00s CPU      0.01s WALL (      38 calls)

     Parallel routines

     PWSCF        :      6h23m CPU     15h53m WALL


   This run was terminated on:   7:50:35   6Dec2021            

=------------------------------------------------------------------------------=
   JOB DONE.
=------------------------------------------------------------------------------=
