
     Program PWSCF v.6.8 starts on  8Dec2021 at 21:55:40 

     This program is part of the open-source Quantum ESPRESSO suite
     for quantum simulation of materials; please cite
         "P. Giannozzi et al., J. Phys.:Condens. Matter 21 395502 (2009);
         "P. Giannozzi et al., J. Phys.:Condens. Matter 29 465901 (2017);
         "P. Giannozzi et al., J. Chem. Phys. 152 154105 (2020);
          URL http://www.quantum-espresso.org", 
     in publications or presentations arising from this work. More details at
     http://www.quantum-espresso.org/quote

     Parallel version (MPI), running on    32 processors

     MPI processes distributed on     1 nodes
     R & G space division:  proc/nbgrp/npool/nimage =      32
     35955 MiB available memory on the printing compute node when the environment starts

     Reading input from runc.in
Warning: card &CELL ignored
Warning: card    CELL_DYNAMICS = 'BFGS' , ignored
Warning: card    CELL_DOFREE = 'ALL', ignored
Warning: card    PRESS_CONV_THR = 0.5 , ! THIS IS THE DEFAULT ignored
Warning: card  / ignored

     Current dimensions of program PWSCF are:
     Max number of different atomic species (ntypx) = 10
     Max number of k-points (npk) =  40000
     Max angular momentum in pseudopotentials (lmaxx) =  4
     file U.pbe-spfn-rrkjus_psl.1.0.0.UPF: wavefunction(s)  5F renormalized
     Found symmetry operation: I + ( -0.5000  0.5000  0.0000)
     This is a supercell, fractional translations are disabled
     Message from routine setup:
     using ibrav=0 with symmetry is DISCOURAGED, use correct ibrav instead

     Subspace diagonalization in iterative solution of the eigenvalue problem:
     a serial algorithm will be used


     Parallelization info
     --------------------
     sticks:   dense  smooth     PW     G-vecs:    dense   smooth      PW
     Min         195      97     27                11629     4111     603
     Max         196      98     28                11633     4118     606
     Sum        6253    3125    869               372189   131683   19309

     Using Slab Decomposition



     bravais-lattice index     =            0
     lattice parameter (alat)  =       8.3778  a.u.
     unit-cell volume          =     588.0141 (a.u.)^3
     number of atoms/cell      =            4
     number of atomic types    =            1
     number of electrons       =        56.00
     number of Kohn-Sham states=           32
     kinetic-energy cutoff     =     140.0000  Ry
     charge density cutoff     =    1120.0000  Ry
     scf convergence threshold =      1.0E-08
     mixing beta               =       0.7000
     number of iterations used =            8  plain     mixing
     Exchange-correlation= PBE
                           (   1   4   3   4   0   0   0)

     celldm(1)=   8.377785  celldm(2)=   0.000000  celldm(3)=   0.000000
     celldm(4)=   0.000000  celldm(5)=   0.000000  celldm(6)=   0.000000

     crystal axes: (cart. coord. in units of alat)
               a(1) = (   1.000000   0.000000   0.000000 )  
               a(2) = (   0.000000   1.000000   0.000000 )  
               a(3) = (   0.000000   0.000000   1.000000 )  

     reciprocal axes: (cart. coord. in units 2 pi/alat)
               b(1) = (  1.000000  0.000000  0.000000 )  
               b(2) = (  0.000000  1.000000  0.000000 )  
               b(3) = (  0.000000  0.000000  1.000000 )  


     PseudoPot. # 1 for U  read from file:
     /home/myhawary/QE/runs/pseudo/U.pbe-spfn-rrkjus_psl.1.0.0.UPF
     MD5 check sum: b50a7459bb2a1ad67e79ea3a31ec714c
     Pseudo is Ultrasoft + core correction, Zval = 14.0
     Generated using &quot;atomic&quot; code by A. Dal Corso  v.6.2.2
     Using radial grid of 1291 points,  8 beta functions with: 
                l(1) =   0
                l(2) =   0
                l(3) =   1
                l(4) =   1
                l(5) =   2
                l(6) =   2
                l(7) =   3
                l(8) =   3
     Q(r) pseudized with 0 coefficients 


     atomic species   valence    mass     pseudopotential
        U             14.00   238.00000     U ( 1.00)

     Starting magnetic structure 
     atomic species   magnetization
        U            0.100

     48 Sym. Ops., with inversion, found


                                    s                        frac. trans.

      isym =  1     identity                                     

 cryst.   s( 1) = (     1          0          0      )
                  (     0          1          0      )
                  (     0          0          1      )

 cart.    s( 1) = (  1.0000000  0.0000000  0.0000000 )
                  (  0.0000000  1.0000000  0.0000000 )
                  (  0.0000000  0.0000000  1.0000000 )


      isym =  2     180 deg rotation - cart. axis [0,0,1]        

 cryst.   s( 2) = (    -1          0          0      )
                  (     0         -1          0      )
                  (     0          0          1      )

 cart.    s( 2) = ( -1.0000000  0.0000000  0.0000000 )
                  (  0.0000000 -1.0000000  0.0000000 )
                  (  0.0000000  0.0000000  1.0000000 )


      isym =  3     180 deg rotation - cart. axis [0,1,0]        

 cryst.   s( 3) = (    -1          0          0      )
                  (     0          1          0      )
                  (     0          0         -1      )

 cart.    s( 3) = ( -1.0000000  0.0000000  0.0000000 )
                  (  0.0000000  1.0000000  0.0000000 )
                  (  0.0000000  0.0000000 -1.0000000 )


      isym =  4     180 deg rotation - cart. axis [1,0,0]        

 cryst.   s( 4) = (     1          0          0      )
                  (     0         -1          0      )
                  (     0          0         -1      )

 cart.    s( 4) = (  1.0000000  0.0000000  0.0000000 )
                  (  0.0000000 -1.0000000  0.0000000 )
                  (  0.0000000  0.0000000 -1.0000000 )


      isym =  5     180 deg rotation - cart. axis [1,1,0]        

 cryst.   s( 5) = (     0          1          0      )
                  (     1          0          0      )
                  (     0          0         -1      )

 cart.    s( 5) = (  0.0000000  0.9999999  0.0000000 )
                  (  1.0000001  0.0000000  0.0000000 )
                  (  0.0000000  0.0000000 -1.0000000 )


      isym =  6     180 deg rotation - cart. axis [1,-1,0]       

 cryst.   s( 6) = (     0         -1          0      )
                  (    -1          0          0      )
                  (     0          0         -1      )

 cart.    s( 6) = (  0.0000000 -0.9999999  0.0000000 )
                  ( -1.0000001  0.0000000  0.0000000 )
                  (  0.0000000  0.0000000 -1.0000000 )


      isym =  7      90 deg rotation - cart. axis [0,0,-1]       

 cryst.   s( 7) = (     0         -1          0      )
                  (     1          0          0      )
                  (     0          0          1      )

 cart.    s( 7) = (  0.0000000  0.9999999  0.0000000 )
                  ( -1.0000001  0.0000000  0.0000000 )
                  (  0.0000000  0.0000000  1.0000000 )


      isym =  8      90 deg rotation - cart. axis [0,0,1]        

 cryst.   s( 8) = (     0          1          0      )
                  (    -1          0          0      )
                  (     0          0          1      )

 cart.    s( 8) = (  0.0000000 -0.9999999  0.0000000 )
                  (  1.0000001  0.0000000  0.0000000 )
                  (  0.0000000  0.0000000  1.0000000 )


      isym =  9     180 deg rotation - cart. axis [1,0,1]        

 cryst.   s( 9) = (     0          0          1      )
                  (     0         -1          0      )
                  (     1          0          0      )

 cart.    s( 9) = (  0.0000000  0.0000000  0.9999999 )
                  (  0.0000000 -1.0000000  0.0000000 )
                  (  1.0000001  0.0000000  0.0000000 )


      isym = 10     180 deg rotation - cart. axis [-1,0,1]       

 cryst.   s(10) = (     0          0         -1      )
                  (     0         -1          0      )
                  (    -1          0          0      )

 cart.    s(10) = (  0.0000000  0.0000000 -0.9999999 )
                  (  0.0000000 -1.0000000  0.0000000 )
                  ( -1.0000001  0.0000000  0.0000000 )


      isym = 11      90 deg rotation - cart. axis [0,1,0]        

 cryst.   s(11) = (     0          0         -1      )
                  (     0          1          0      )
                  (     1          0          0      )

 cart.    s(11) = (  0.0000000  0.0000000  0.9999999 )
                  (  0.0000000  1.0000000  0.0000000 )
                  ( -1.0000001  0.0000000  0.0000000 )


      isym = 12      90 deg rotation - cart. axis [0,-1,0]       

 cryst.   s(12) = (     0          0          1      )
                  (     0          1          0      )
                  (    -1          0          0      )

 cart.    s(12) = (  0.0000000  0.0000000 -0.9999999 )
                  (  0.0000000  1.0000000  0.0000000 )
                  (  1.0000001  0.0000000  0.0000000 )


      isym = 13     180 deg rotation - cart. axis [0,1,1]        

 cryst.   s(13) = (    -1          0          0      )
                  (     0          0          1      )
                  (     0          1          0      )

 cart.    s(13) = ( -1.0000000  0.0000000  0.0000000 )
                  (  0.0000000  0.0000000  1.0000000 )
                  (  0.0000000  1.0000000  0.0000000 )


      isym = 14     180 deg rotation - cart. axis [0,1,-1]       

 cryst.   s(14) = (    -1          0          0      )
                  (     0          0         -1      )
                  (     0         -1          0      )

 cart.    s(14) = ( -1.0000000  0.0000000  0.0000000 )
                  (  0.0000000  0.0000000 -1.0000000 )
                  (  0.0000000 -1.0000000  0.0000000 )


      isym = 15      90 deg rotation - cart. axis [-1,0,0]       

 cryst.   s(15) = (     1          0          0      )
                  (     0          0         -1      )
                  (     0          1          0      )

 cart.    s(15) = (  1.0000000  0.0000000  0.0000000 )
                  (  0.0000000  0.0000000  1.0000000 )
                  (  0.0000000 -1.0000000  0.0000000 )


      isym = 16      90 deg rotation - cart. axis [1,0,0]        

 cryst.   s(16) = (     1          0          0      )
                  (     0          0          1      )
                  (     0         -1          0      )

 cart.    s(16) = (  1.0000000  0.0000000  0.0000000 )
                  (  0.0000000  0.0000000 -1.0000000 )
                  (  0.0000000  1.0000000  0.0000000 )


      isym = 17     120 deg rotation - cart. axis [-1,-1,-1]     

 cryst.   s(17) = (     0          0          1      )
                  (     1          0          0      )
                  (     0          1          0      )

 cart.    s(17) = (  0.0000000  0.9999999  0.0000000 )
                  (  0.0000000  0.0000000  1.0000000 )
                  (  1.0000001  0.0000000  0.0000000 )


      isym = 18     120 deg rotation - cart. axis [-1,1,1]       

 cryst.   s(18) = (     0          0         -1      )
                  (    -1          0          0      )
                  (     0          1          0      )

 cart.    s(18) = (  0.0000000 -0.9999999  0.0000000 )
                  (  0.0000000  0.0000000  1.0000000 )
                  ( -1.0000001  0.0000000  0.0000000 )


      isym = 19     120 deg rotation - cart. axis [1,1,-1]       

 cryst.   s(19) = (     0          0         -1      )
                  (     1          0          0      )
                  (     0         -1          0      )

 cart.    s(19) = (  0.0000000  0.9999999  0.0000000 )
                  (  0.0000000  0.0000000 -1.0000000 )
                  ( -1.0000001  0.0000000  0.0000000 )


      isym = 20     120 deg rotation - cart. axis [1,-1,1]       

 cryst.   s(20) = (     0          0          1      )
                  (    -1          0          0      )
                  (     0         -1          0      )

 cart.    s(20) = (  0.0000000 -0.9999999  0.0000000 )
                  (  0.0000000  0.0000000 -1.0000000 )
                  (  1.0000001  0.0000000  0.0000000 )


      isym = 21     120 deg rotation - cart. axis [1,1,1]        

 cryst.   s(21) = (     0          1          0      )
                  (     0          0          1      )
                  (     1          0          0      )

 cart.    s(21) = (  0.0000000  0.0000000  0.9999999 )
                  (  1.0000001  0.0000000  0.0000000 )
                  (  0.0000000  1.0000000  0.0000000 )


      isym = 22     120 deg rotation - cart. axis [-1,1,-1]      

 cryst.   s(22) = (     0         -1          0      )
                  (     0          0         -1      )
                  (     1          0          0      )

 cart.    s(22) = (  0.0000000  0.0000000  0.9999999 )
                  ( -1.0000001  0.0000000  0.0000000 )
                  (  0.0000000 -1.0000000  0.0000000 )


      isym = 23     120 deg rotation - cart. axis [1,-1,-1]      

 cryst.   s(23) = (     0         -1          0      )
                  (     0          0          1      )
                  (    -1          0          0      )

 cart.    s(23) = (  0.0000000  0.0000000 -0.9999999 )
                  ( -1.0000001  0.0000000  0.0000000 )
                  (  0.0000000  1.0000000  0.0000000 )


      isym = 24     120 deg rotation - cart. axis [-1,-1,1]      

 cryst.   s(24) = (     0          1          0      )
                  (     0          0         -1      )
                  (    -1          0          0      )

 cart.    s(24) = (  0.0000000  0.0000000 -0.9999999 )
                  (  1.0000001  0.0000000  0.0000000 )
                  (  0.0000000 -1.0000000  0.0000000 )


      isym = 25     inversion                                    

 cryst.   s(25) = (    -1          0          0      )
                  (     0         -1          0      )
                  (     0          0         -1      )

 cart.    s(25) = ( -1.0000000  0.0000000  0.0000000 )
                  (  0.0000000 -1.0000000  0.0000000 )
                  (  0.0000000  0.0000000 -1.0000000 )


      isym = 26     inv. 180 deg rotation - cart. axis [0,0,1]   

 cryst.   s(26) = (     1          0          0      )
                  (     0          1          0      )
                  (     0          0         -1      )

 cart.    s(26) = (  1.0000000  0.0000000  0.0000000 )
                  (  0.0000000  1.0000000  0.0000000 )
                  (  0.0000000  0.0000000 -1.0000000 )


      isym = 27     inv. 180 deg rotation - cart. axis [0,1,0]   

 cryst.   s(27) = (     1          0          0      )
                  (     0         -1          0      )
                  (     0          0          1      )

 cart.    s(27) = (  1.0000000  0.0000000  0.0000000 )
                  (  0.0000000 -1.0000000  0.0000000 )
                  (  0.0000000  0.0000000  1.0000000 )


      isym = 28     inv. 180 deg rotation - cart. axis [1,0,0]   

 cryst.   s(28) = (    -1          0          0      )
                  (     0          1          0      )
                  (     0          0          1      )

 cart.    s(28) = ( -1.0000000  0.0000000  0.0000000 )
                  (  0.0000000  1.0000000  0.0000000 )
                  (  0.0000000  0.0000000  1.0000000 )


      isym = 29     inv. 180 deg rotation - cart. axis [1,1,0]   

 cryst.   s(29) = (     0         -1          0      )
                  (    -1          0          0      )
                  (     0          0          1      )

 cart.    s(29) = (  0.0000000 -0.9999999  0.0000000 )
                  ( -1.0000001  0.0000000  0.0000000 )
                  (  0.0000000  0.0000000  1.0000000 )


      isym = 30     inv. 180 deg rotation - cart. axis [1,-1,0]  

 cryst.   s(30) = (     0          1          0      )
                  (     1          0          0      )
                  (     0          0          1      )

 cart.    s(30) = (  0.0000000  0.9999999  0.0000000 )
                  (  1.0000001  0.0000000  0.0000000 )
                  (  0.0000000  0.0000000  1.0000000 )


      isym = 31     inv.  90 deg rotation - cart. axis [0,0,-1]  

 cryst.   s(31) = (     0          1          0      )
                  (    -1          0          0      )
                  (     0          0         -1      )

 cart.    s(31) = (  0.0000000 -0.9999999  0.0000000 )
                  (  1.0000001  0.0000000  0.0000000 )
                  (  0.0000000  0.0000000 -1.0000000 )


      isym = 32     inv.  90 deg rotation - cart. axis [0,0,1]   

 cryst.   s(32) = (     0         -1          0      )
                  (     1          0          0      )
                  (     0          0         -1      )

 cart.    s(32) = (  0.0000000  0.9999999  0.0000000 )
                  ( -1.0000001  0.0000000  0.0000000 )
                  (  0.0000000  0.0000000 -1.0000000 )


      isym = 33     inv. 180 deg rotation - cart. axis [1,0,1]   

 cryst.   s(33) = (     0          0         -1      )
                  (     0          1          0      )
                  (    -1          0          0      )

 cart.    s(33) = (  0.0000000  0.0000000 -0.9999999 )
                  (  0.0000000  1.0000000  0.0000000 )
                  ( -1.0000001  0.0000000  0.0000000 )


      isym = 34     inv. 180 deg rotation - cart. axis [-1,0,1]  

 cryst.   s(34) = (     0          0          1      )
                  (     0          1          0      )
                  (     1          0          0      )

 cart.    s(34) = (  0.0000000  0.0000000  0.9999999 )
                  (  0.0000000  1.0000000  0.0000000 )
                  (  1.0000001  0.0000000  0.0000000 )


      isym = 35     inv.  90 deg rotation - cart. axis [0,1,0]   

 cryst.   s(35) = (     0          0          1      )
                  (     0         -1          0      )
                  (    -1          0          0      )

 cart.    s(35) = (  0.0000000  0.0000000 -0.9999999 )
                  (  0.0000000 -1.0000000  0.0000000 )
                  (  1.0000001  0.0000000  0.0000000 )


      isym = 36     inv.  90 deg rotation - cart. axis [0,-1,0]  

 cryst.   s(36) = (     0          0         -1      )
                  (     0         -1          0      )
                  (     1          0          0      )

 cart.    s(36) = (  0.0000000  0.0000000  0.9999999 )
                  (  0.0000000 -1.0000000  0.0000000 )
                  ( -1.0000001  0.0000000  0.0000000 )


      isym = 37     inv. 180 deg rotation - cart. axis [0,1,1]   

 cryst.   s(37) = (     1          0          0      )
                  (     0          0         -1      )
                  (     0         -1          0      )

 cart.    s(37) = (  1.0000000  0.0000000  0.0000000 )
                  (  0.0000000  0.0000000 -1.0000000 )
                  (  0.0000000 -1.0000000  0.0000000 )


      isym = 38     inv. 180 deg rotation - cart. axis [0,1,-1]  

 cryst.   s(38) = (     1          0          0      )
                  (     0          0          1      )
                  (     0          1          0      )

 cart.    s(38) = (  1.0000000  0.0000000  0.0000000 )
                  (  0.0000000  0.0000000  1.0000000 )
                  (  0.0000000  1.0000000  0.0000000 )


      isym = 39     inv.  90 deg rotation - cart. axis [-1,0,0]  

 cryst.   s(39) = (    -1          0          0      )
                  (     0          0          1      )
                  (     0         -1          0      )

 cart.    s(39) = ( -1.0000000  0.0000000  0.0000000 )
                  (  0.0000000  0.0000000 -1.0000000 )
                  (  0.0000000  1.0000000  0.0000000 )


      isym = 40     inv.  90 deg rotation - cart. axis [1,0,0]   

 cryst.   s(40) = (    -1          0          0      )
                  (     0          0         -1      )
                  (     0          1          0      )

 cart.    s(40) = ( -1.0000000  0.0000000  0.0000000 )
                  (  0.0000000  0.0000000  1.0000000 )
                  (  0.0000000 -1.0000000  0.0000000 )


      isym = 41     inv. 120 deg rotation - cart. axis [-1,-1,-1]

 cryst.   s(41) = (     0          0         -1      )
                  (    -1          0          0      )
                  (     0         -1          0      )

 cart.    s(41) = (  0.0000000 -0.9999999  0.0000000 )
                  (  0.0000000  0.0000000 -1.0000000 )
                  ( -1.0000001  0.0000000  0.0000000 )


      isym = 42     inv. 120 deg rotation - cart. axis [-1,1,1]  

 cryst.   s(42) = (     0          0          1      )
                  (     1          0          0      )
                  (     0         -1          0      )

 cart.    s(42) = (  0.0000000  0.9999999  0.0000000 )
                  (  0.0000000  0.0000000 -1.0000000 )
                  (  1.0000001  0.0000000  0.0000000 )


      isym = 43     inv. 120 deg rotation - cart. axis [1,1,-1]  

 cryst.   s(43) = (     0          0          1      )
                  (    -1          0          0      )
                  (     0          1          0      )

 cart.    s(43) = (  0.0000000 -0.9999999  0.0000000 )
                  (  0.0000000  0.0000000  1.0000000 )
                  (  1.0000001  0.0000000  0.0000000 )


      isym = 44     inv. 120 deg rotation - cart. axis [1,-1,1]  

 cryst.   s(44) = (     0          0         -1      )
                  (     1          0          0      )
                  (     0          1          0      )

 cart.    s(44) = (  0.0000000  0.9999999  0.0000000 )
                  (  0.0000000  0.0000000  1.0000000 )
                  ( -1.0000001  0.0000000  0.0000000 )


      isym = 45     inv. 120 deg rotation - cart. axis [1,1,1]   

 cryst.   s(45) = (     0         -1          0      )
                  (     0          0         -1      )
                  (    -1          0          0      )

 cart.    s(45) = (  0.0000000  0.0000000 -0.9999999 )
                  ( -1.0000001  0.0000000  0.0000000 )
                  (  0.0000000 -1.0000000  0.0000000 )


      isym = 46     inv. 120 deg rotation - cart. axis [-1,1,-1] 

 cryst.   s(46) = (     0          1          0      )
                  (     0          0          1      )
                  (    -1          0          0      )

 cart.    s(46) = (  0.0000000  0.0000000 -0.9999999 )
                  (  1.0000001  0.0000000  0.0000000 )
                  (  0.0000000  1.0000000  0.0000000 )


      isym = 47     inv. 120 deg rotation - cart. axis [1,-1,-1] 

 cryst.   s(47) = (     0          1          0      )
                  (     0          0         -1      )
                  (     1          0          0      )

 cart.    s(47) = (  0.0000000  0.0000000  0.9999999 )
                  (  1.0000001  0.0000000  0.0000000 )
                  (  0.0000000 -1.0000000  0.0000000 )


      isym = 48     inv. 120 deg rotation - cart. axis [-1,-1,1] 

 cryst.   s(48) = (     0         -1          0      )
                  (     0          0          1      )
                  (     1          0          0      )

 cart.    s(48) = (  0.0000000  0.0000000  0.9999999 )
                  ( -1.0000001  0.0000000  0.0000000 )
                  (  0.0000000  1.0000000  0.0000000 )


   Cartesian axes

     site n.     atom                  positions (alat units)
         1           U   tau(   1) = (   0.0000000   0.0000000   0.0000000  )
         2           U   tau(   2) = (   0.5000000   0.5000000   0.0000000  )
         3           U   tau(   3) = (   0.5000000   0.0000000   0.5000000  )
         4           U   tau(   4) = (   0.0000000   0.5000000   0.5000000  )

   Crystallographic axes

     site n.     atom                  positions (cryst. coord.)
         1           U   tau(   1) = (  0.0000000  0.0000000  0.0000000  )
         2           U   tau(   2) = (  0.5000000  0.5000000  0.0000000  )
         3           U   tau(   3) = (  0.5000000  0.0000000  0.5000000  )
         4           U   tau(   4) = (  0.0000000  0.5000000  0.5000000  )

     number of k points=    20  Marzari-Vanderbilt smearing, width (Ry)=  0.0500
                       cart. coord. in units 2pi/alat
        k(    1) = (   0.0000000   0.0000000   0.0000000), wk =   0.0046296
        k(    2) = (   0.0000000   0.0000000   0.1666667), wk =   0.0277778
        k(    3) = (   0.0000000   0.0000000   0.3333333), wk =   0.0277778
        k(    4) = (   0.0000000   0.0000000  -0.5000000), wk =   0.0138889
        k(    5) = (   0.0000000   0.1666667   0.1666667), wk =   0.0555556
        k(    6) = (   0.0000000   0.1666667   0.3333333), wk =   0.1111111
        k(    7) = (   0.0000000   0.1666667  -0.5000000), wk =   0.0555556
        k(    8) = (   0.0000000   0.3333333   0.3333333), wk =   0.0555556
        k(    9) = (   0.0000000   0.3333333  -0.5000000), wk =   0.0555556
        k(   10) = (   0.0000000  -0.5000000  -0.5000000), wk =   0.0138889
        k(   11) = (   0.1666667   0.1666667   0.1666667), wk =   0.0370370
        k(   12) = (   0.1666667   0.1666667   0.3333333), wk =   0.1111111
        k(   13) = (   0.1666667   0.1666667  -0.5000000), wk =   0.0555556
        k(   14) = (   0.1666667   0.3333333   0.3333333), wk =   0.1111111
        k(   15) = (   0.1666667   0.3333333  -0.5000000), wk =   0.1111111
        k(   16) = (   0.1666667  -0.5000000  -0.5000000), wk =   0.0277778
        k(   17) = (   0.3333333   0.3333333   0.3333333), wk =   0.0370370
        k(   18) = (   0.3333333   0.3333333  -0.5000000), wk =   0.0555556
        k(   19) = (   0.3333333  -0.5000000  -0.5000000), wk =   0.0277778
        k(   20) = (  -0.5000000  -0.5000000  -0.5000000), wk =   0.0046296

                       cryst. coord.
        k(    1) = (   0.0000000   0.0000000   0.0000000), wk =   0.0046296
        k(    2) = (   0.0000000   0.0000000   0.1666667), wk =   0.0277778
        k(    3) = (   0.0000000   0.0000000   0.3333333), wk =   0.0277778
        k(    4) = (   0.0000000   0.0000000  -0.5000000), wk =   0.0138889
        k(    5) = (   0.0000000   0.1666667   0.1666667), wk =   0.0555556
        k(    6) = (   0.0000000   0.1666667   0.3333333), wk =   0.1111111
        k(    7) = (   0.0000000   0.1666667  -0.5000000), wk =   0.0555556
        k(    8) = (   0.0000000   0.3333333   0.3333333), wk =   0.0555556
        k(    9) = (   0.0000000   0.3333333  -0.5000000), wk =   0.0555556
        k(   10) = (   0.0000000  -0.5000000  -0.5000000), wk =   0.0138889
        k(   11) = (   0.1666667   0.1666667   0.1666667), wk =   0.0370370
        k(   12) = (   0.1666667   0.1666667   0.3333333), wk =   0.1111111
        k(   13) = (   0.1666667   0.1666667  -0.5000000), wk =   0.0555556
        k(   14) = (   0.1666667   0.3333333   0.3333333), wk =   0.1111111
        k(   15) = (   0.1666667   0.3333333  -0.5000000), wk =   0.1111111
        k(   16) = (   0.1666667  -0.5000000  -0.5000000), wk =   0.0277778
        k(   17) = (   0.3333333   0.3333333   0.3333333), wk =   0.0370370
        k(   18) = (   0.3333333   0.3333333  -0.5000000), wk =   0.0555556
        k(   19) = (   0.3333333  -0.5000000  -0.5000000), wk =   0.0277778
        k(   20) = (  -0.5000000  -0.5000000  -0.5000000), wk =   0.0046296

     Dense  grid:   372189 G-vectors     FFT dimensions: (  90,  90,  90)

     Smooth grid:   131683 G-vectors     FFT dimensions: (  64,  64,  64)

     Dynamical RAM for                 wfc:       0.25 MB

     Dynamical RAM for     wfc (w. buffer):      10.29 MB

     Dynamical RAM for           str. fact:       0.18 MB

     Dynamical RAM for           local pot:       0.00 MB

     Dynamical RAM for          nlocal pot:       1.00 MB

     Dynamical RAM for                qrad:       6.44 MB

     Dynamical RAM for          rho,v,vnew:       2.18 MB

     Dynamical RAM for               rhoin:       0.73 MB

     Dynamical RAM for            rho*nmix:       5.68 MB

     Dynamical RAM for           G-vectors:       0.70 MB

     Dynamical RAM for          h,s,v(r/c):       0.19 MB

     Dynamical RAM for          <psi|beta>:       0.06 MB

     Dynamical RAM for                 psi:       0.50 MB

     Dynamical RAM for                hpsi:       0.50 MB

     Dynamical RAM for                spsi:       0.50 MB

     Dynamical RAM for      wfcinit/wfcrot:       0.53 MB

     Dynamical RAM for           addusdens:      99.40 MB

     Dynamical RAM for          addusforce:     100.56 MB

     Dynamical RAM for         addusstress:     103.57 MB

     Estimated static dynamical RAM per process >      22.98 MB

     Estimated max dynamical RAM per process >     132.23 MB

     Estimated total dynamical RAM >       4.13 GB
     Generating pointlists ...
     new r_m :   0.2917 (alat units)  2.4436 (a.u.) for type    1

     Initial potential from superposition of free atoms

     starting charge   55.98204, renormalised to   56.00000
     Starting wfcs are random

     total cpu time spent up to now is        5.8 secs

     Self-consistent Calculation

     iteration #  1     ecut=   140.00 Ry     beta= 0.70
     Davidson diagonalization with overlap

---- Real-time Memory Report at c_bands before calling an iterative solver
           136 MiB given to the printing process from OS
             0 MiB allocation reported by mallinfo(arena+hblkhd)
         34826 MiB available memory on the node where the printing process lives
------------------
     ethr =  1.00E-02,  avg # of iterations = 11.5

     total cpu time spent up to now is       32.1 secs

     total energy              =    -515.95847705 Ry
     estimated scf accuracy    <       1.76129174 Ry

     total magnetization       =     2.51 Bohr mag/cell
     absolute magnetization    =     2.51 Bohr mag/cell

     iteration #  2     ecut=   140.00 Ry     beta= 0.70
     Davidson diagonalization with overlap

---- Real-time Memory Report at c_bands before calling an iterative solver
           149 MiB given to the printing process from OS
             0 MiB allocation reported by mallinfo(arena+hblkhd)
         34591 MiB available memory on the node where the printing process lives
------------------
     ethr =  3.15E-03,  avg # of iterations =  7.5

     total cpu time spent up to now is       49.6 secs

     total energy              =    -516.47415619 Ry
     estimated scf accuracy    <       6.01066750 Ry

     total magnetization       =     3.27 Bohr mag/cell
     absolute magnetization    =     3.28 Bohr mag/cell

     iteration #  3     ecut=   140.00 Ry     beta= 0.70
     Davidson diagonalization with overlap

---- Real-time Memory Report at c_bands before calling an iterative solver
           149 MiB given to the printing process from OS
             0 MiB allocation reported by mallinfo(arena+hblkhd)
         34588 MiB available memory on the node where the printing process lives
------------------
     ethr =  3.15E-03,  avg # of iterations =  4.2

     total cpu time spent up to now is       62.9 secs

     total energy              =    -517.27446809 Ry
     estimated scf accuracy    <       0.21579615 Ry

     total magnetization       =     2.02 Bohr mag/cell
     absolute magnetization    =     2.02 Bohr mag/cell

     iteration #  4     ecut=   140.00 Ry     beta= 0.70
     Davidson diagonalization with overlap

---- Real-time Memory Report at c_bands before calling an iterative solver
           150 MiB given to the printing process from OS
             0 MiB allocation reported by mallinfo(arena+hblkhd)
         34579 MiB available memory on the node where the printing process lives
------------------
     c_bands:  1 eigenvalues not converged
     c_bands:  1 eigenvalues not converged
     c_bands:  1 eigenvalues not converged
     c_bands:  3 eigenvalues not converged
     c_bands:  2 eigenvalues not converged
     c_bands:  5 eigenvalues not converged
     c_bands:  1 eigenvalues not converged
     c_bands:  2 eigenvalues not converged
     c_bands:  1 eigenvalues not converged
     c_bands:  2 eigenvalues not converged
     c_bands:  4 eigenvalues not converged
     c_bands:  1 eigenvalues not converged
     c_bands:  2 eigenvalues not converged
     c_bands:  2 eigenvalues not converged
     c_bands:  2 eigenvalues not converged
     ethr =  3.85E-04,  avg # of iterations = 15.4

     total cpu time spent up to now is       81.1 secs

     total energy              =    -517.44886213 Ry
     estimated scf accuracy    <       0.20239249 Ry

     total magnetization       =     1.71 Bohr mag/cell
     absolute magnetization    =     1.72 Bohr mag/cell

     iteration #  5     ecut=   140.00 Ry     beta= 0.70
     Davidson diagonalization with overlap

---- Real-time Memory Report at c_bands before calling an iterative solver
           150 MiB given to the printing process from OS
             0 MiB allocation reported by mallinfo(arena+hblkhd)
         34574 MiB available memory on the node where the printing process lives
------------------
     ethr =  3.61E-04,  avg # of iterations =  5.2

     total cpu time spent up to now is       90.9 secs

     total energy              =    -517.45717149 Ry
     estimated scf accuracy    <       0.02142665 Ry

     total magnetization       =     1.69 Bohr mag/cell
     absolute magnetization    =     1.70 Bohr mag/cell

     iteration #  6     ecut=   140.00 Ry     beta= 0.70
     Davidson diagonalization with overlap

---- Real-time Memory Report at c_bands before calling an iterative solver
           150 MiB given to the printing process from OS
             0 MiB allocation reported by mallinfo(arena+hblkhd)
         34568 MiB available memory on the node where the printing process lives
------------------
     c_bands:  2 eigenvalues not converged
     c_bands:  3 eigenvalues not converged
     c_bands:  1 eigenvalues not converged
     c_bands:  2 eigenvalues not converged
     c_bands:  1 eigenvalues not converged
     c_bands:  1 eigenvalues not converged
     c_bands:  2 eigenvalues not converged
     c_bands:  4 eigenvalues not converged
     c_bands:  4 eigenvalues not converged
     c_bands:  3 eigenvalues not converged
     c_bands:  2 eigenvalues not converged
     c_bands:  2 eigenvalues not converged
     c_bands:  4 eigenvalues not converged
     c_bands:  5 eigenvalues not converged
     c_bands:  5 eigenvalues not converged
     c_bands:  2 eigenvalues not converged
     c_bands:  3 eigenvalues not converged
     c_bands:  3 eigenvalues not converged
     c_bands:  2 eigenvalues not converged
     c_bands:  2 eigenvalues not converged
     c_bands:  2 eigenvalues not converged
     c_bands:  4 eigenvalues not converged
     c_bands:  2 eigenvalues not converged
     c_bands:  4 eigenvalues not converged
     c_bands:  3 eigenvalues not converged
     c_bands:  4 eigenvalues not converged
     c_bands:  2 eigenvalues not converged
     c_bands:  2 eigenvalues not converged
     c_bands:  4 eigenvalues not converged
     c_bands:  1 eigenvalues not converged
     c_bands:  1 eigenvalues not converged
     c_bands:  5 eigenvalues not converged
     c_bands:  5 eigenvalues not converged
     c_bands:  2 eigenvalues not converged
     ethr =  3.83E-05,  avg # of iterations = 24.0

     total cpu time spent up to now is      119.0 secs

     total energy              =    -517.48704206 Ry
     estimated scf accuracy    <       0.26816614 Ry

     total magnetization       =     1.46 Bohr mag/cell
     absolute magnetization    =     1.47 Bohr mag/cell

     iteration #  7     ecut=   140.00 Ry     beta= 0.70
     Davidson diagonalization with overlap

---- Real-time Memory Report at c_bands before calling an iterative solver
           151 MiB given to the printing process from OS
             0 MiB allocation reported by mallinfo(arena+hblkhd)
         34563 MiB available memory on the node where the printing process lives
------------------
     c_bands:  2 eigenvalues not converged
     c_bands:  1 eigenvalues not converged
     c_bands:  1 eigenvalues not converged
     c_bands:  1 eigenvalues not converged
     c_bands:  3 eigenvalues not converged
     c_bands:  2 eigenvalues not converged
     c_bands:  1 eigenvalues not converged
     c_bands:  4 eigenvalues not converged
     c_bands:  1 eigenvalues not converged
     c_bands:  2 eigenvalues not converged
     c_bands:  1 eigenvalues not converged
     c_bands:  1 eigenvalues not converged
     c_bands:  1 eigenvalues not converged
     c_bands:  3 eigenvalues not converged
     c_bands:  3 eigenvalues not converged
     ethr =  3.83E-05,  avg # of iterations = 15.0

     total cpu time spent up to now is      133.0 secs

     total energy              =    -517.47658168 Ry
     estimated scf accuracy    <       0.11236479 Ry

     total magnetization       =     1.41 Bohr mag/cell
     absolute magnetization    =     1.43 Bohr mag/cell

     iteration #  8     ecut=   140.00 Ry     beta= 0.70
     Davidson diagonalization with overlap

---- Real-time Memory Report at c_bands before calling an iterative solver
           151 MiB given to the printing process from OS
             0 MiB allocation reported by mallinfo(arena+hblkhd)
         34565 MiB available memory on the node where the printing process lives
------------------
     c_bands:  2 eigenvalues not converged
     c_bands:  1 eigenvalues not converged
     c_bands:  3 eigenvalues not converged
     c_bands:  1 eigenvalues not converged
     c_bands:  5 eigenvalues not converged
     c_bands:  3 eigenvalues not converged
     c_bands:  2 eigenvalues not converged
     c_bands:  4 eigenvalues not converged
     c_bands:  2 eigenvalues not converged
     c_bands:  1 eigenvalues not converged
     c_bands:  2 eigenvalues not converged
     c_bands:  1 eigenvalues not converged
     c_bands:  3 eigenvalues not converged
     c_bands:  2 eigenvalues not converged
     c_bands:  2 eigenvalues not converged
     c_bands:  2 eigenvalues not converged
     c_bands:  2 eigenvalues not converged
     c_bands:  1 eigenvalues not converged
     c_bands:  2 eigenvalues not converged
     c_bands:  1 eigenvalues not converged
     c_bands:  2 eigenvalues not converged
     c_bands:  3 eigenvalues not converged
     c_bands:  3 eigenvalues not converged
     c_bands:  1 eigenvalues not converged
     c_bands:  3 eigenvalues not converged
     c_bands:  1 eigenvalues not converged
     c_bands:  2 eigenvalues not converged
     ethr =  3.83E-05,  avg # of iterations = 17.4

     total cpu time spent up to now is      154.6 secs

     total energy              =    -517.48993273 Ry
     estimated scf accuracy    <       0.36645451 Ry

     total magnetization       =     1.31 Bohr mag/cell
     absolute magnetization    =     1.33 Bohr mag/cell

     iteration #  9     ecut=   140.00 Ry     beta= 0.70
     Davidson diagonalization with overlap

---- Real-time Memory Report at c_bands before calling an iterative solver
           151 MiB given to the printing process from OS
             0 MiB allocation reported by mallinfo(arena+hblkhd)
         34544 MiB available memory on the node where the printing process lives
------------------
     c_bands:  1 eigenvalues not converged
     c_bands:  1 eigenvalues not converged
     ethr =  3.83E-05,  avg # of iterations =  8.3

     total cpu time spent up to now is      166.0 secs

     total energy              =    -517.49093488 Ry
     estimated scf accuracy    <       0.11922413 Ry

     total magnetization       =     1.25 Bohr mag/cell
     absolute magnetization    =     1.27 Bohr mag/cell

     iteration # 10     ecut=   140.00 Ry     beta= 0.70
     Davidson diagonalization with overlap

---- Real-time Memory Report at c_bands before calling an iterative solver
           151 MiB given to the printing process from OS
             0 MiB allocation reported by mallinfo(arena+hblkhd)
         34537 MiB available memory on the node where the printing process lives
------------------
     ethr =  3.83E-05,  avg # of iterations =  5.1

     total cpu time spent up to now is      175.8 secs

     total energy              =    -517.48837584 Ry
     estimated scf accuracy    <       0.05986062 Ry

     total magnetization       =     1.22 Bohr mag/cell
     absolute magnetization    =     1.25 Bohr mag/cell

     iteration # 11     ecut=   140.00 Ry     beta= 0.70
     Davidson diagonalization with overlap

---- Real-time Memory Report at c_bands before calling an iterative solver
           152 MiB given to the printing process from OS
             0 MiB allocation reported by mallinfo(arena+hblkhd)
         34540 MiB available memory on the node where the printing process lives
------------------
     c_bands:  1 eigenvalues not converged
     c_bands:  1 eigenvalues not converged
     c_bands:  2 eigenvalues not converged
     c_bands:  1 eigenvalues not converged
     c_bands:  1 eigenvalues not converged
     ethr =  3.83E-05,  avg # of iterations = 10.7

     total cpu time spent up to now is      188.8 secs

     total energy              =    -517.49391337 Ry
     estimated scf accuracy    <       0.00755251 Ry

     total magnetization       =     1.18 Bohr mag/cell
     absolute magnetization    =     1.20 Bohr mag/cell

     iteration # 12     ecut=   140.00 Ry     beta= 0.70
     Davidson diagonalization with overlap

---- Real-time Memory Report at c_bands before calling an iterative solver
           152 MiB given to the printing process from OS
             0 MiB allocation reported by mallinfo(arena+hblkhd)
         34541 MiB available memory on the node where the printing process lives
------------------
     c_bands:  3 eigenvalues not converged
     ethr =  1.35E-05,  avg # of iterations =  6.3

     total cpu time spent up to now is      199.2 secs

     total energy              =    -517.49457378 Ry
     estimated scf accuracy    <       0.00865453 Ry

     total magnetization       =     1.16 Bohr mag/cell
     absolute magnetization    =     1.19 Bohr mag/cell

     iteration # 13     ecut=   140.00 Ry     beta= 0.70
     Davidson diagonalization with overlap

---- Real-time Memory Report at c_bands before calling an iterative solver
           152 MiB given to the printing process from OS
             0 MiB allocation reported by mallinfo(arena+hblkhd)
         34544 MiB available memory on the node where the printing process lives
------------------
     c_bands:  1 eigenvalues not converged
     ethr =  1.35E-05,  avg # of iterations =  2.0

     total cpu time spent up to now is      207.9 secs

     total energy              =    -517.49369122 Ry
     estimated scf accuracy    <       0.00498188 Ry

     total magnetization       =     1.15 Bohr mag/cell
     absolute magnetization    =     1.18 Bohr mag/cell

     iteration # 14     ecut=   140.00 Ry     beta= 0.70
     Davidson diagonalization with overlap

---- Real-time Memory Report at c_bands before calling an iterative solver
           152 MiB given to the printing process from OS
             0 MiB allocation reported by mallinfo(arena+hblkhd)
         34543 MiB available memory on the node where the printing process lives
------------------
     c_bands:  1 eigenvalues not converged
     c_bands:  3 eigenvalues not converged
     c_bands:  3 eigenvalues not converged
     c_bands:  3 eigenvalues not converged
     c_bands:  1 eigenvalues not converged
     c_bands:  1 eigenvalues not converged
     c_bands:  1 eigenvalues not converged
     c_bands:  3 eigenvalues not converged
     c_bands:  1 eigenvalues not converged
     ethr =  8.90E-06,  avg # of iterations = 14.1

     total cpu time spent up to now is      223.5 secs

     total energy              =    -517.49554902 Ry
     estimated scf accuracy    <       0.03011795 Ry

     total magnetization       =     1.13 Bohr mag/cell
     absolute magnetization    =     1.16 Bohr mag/cell

     iteration # 15     ecut=   140.00 Ry     beta= 0.70
     Davidson diagonalization with overlap

---- Real-time Memory Report at c_bands before calling an iterative solver
           152 MiB given to the printing process from OS
             0 MiB allocation reported by mallinfo(arena+hblkhd)
         34551 MiB available memory on the node where the printing process lives
------------------
     c_bands:  1 eigenvalues not converged
     c_bands:  2 eigenvalues not converged
     ethr =  8.90E-06,  avg # of iterations =  2.8

     total cpu time spent up to now is      232.6 secs

     total energy              =    -517.49551540 Ry
     estimated scf accuracy    <       0.02112379 Ry

     total magnetization       =     1.11 Bohr mag/cell
     absolute magnetization    =     1.14 Bohr mag/cell

     iteration # 16     ecut=   140.00 Ry     beta= 0.70
     Davidson diagonalization with overlap

---- Real-time Memory Report at c_bands before calling an iterative solver
           152 MiB given to the printing process from OS
             0 MiB allocation reported by mallinfo(arena+hblkhd)
         34548 MiB available memory on the node where the printing process lives
------------------
     c_bands:  1 eigenvalues not converged
     ethr =  8.90E-06,  avg # of iterations =  1.9

     total cpu time spent up to now is      241.3 secs

     total energy              =    -517.49569960 Ry
     estimated scf accuracy    <       0.01893211 Ry

     total magnetization       =     1.11 Bohr mag/cell
     absolute magnetization    =     1.13 Bohr mag/cell

     iteration # 17     ecut=   140.00 Ry     beta= 0.70
     Davidson diagonalization with overlap

---- Real-time Memory Report at c_bands before calling an iterative solver
           152 MiB given to the printing process from OS
             0 MiB allocation reported by mallinfo(arena+hblkhd)
         34551 MiB available memory on the node where the printing process lives
------------------
     ethr =  8.90E-06,  avg # of iterations =  1.4

     total cpu time spent up to now is      250.3 secs

     total energy              =    -517.49599381 Ry
     estimated scf accuracy    <       0.02010066 Ry

     total magnetization       =     1.12 Bohr mag/cell
     absolute magnetization    =     1.14 Bohr mag/cell

     iteration # 18     ecut=   140.00 Ry     beta= 0.70
     Davidson diagonalization with overlap

---- Real-time Memory Report at c_bands before calling an iterative solver
           152 MiB given to the printing process from OS
             0 MiB allocation reported by mallinfo(arena+hblkhd)
         34547 MiB available memory on the node where the printing process lives
------------------
     ethr =  8.90E-06,  avg # of iterations =  1.0

     total cpu time spent up to now is      258.9 secs

     total energy              =    -517.49474659 Ry
     estimated scf accuracy    <       0.02314018 Ry

     total magnetization       =     1.11 Bohr mag/cell
     absolute magnetization    =     1.13 Bohr mag/cell

     iteration # 19     ecut=   140.00 Ry     beta= 0.70
     Davidson diagonalization with overlap

---- Real-time Memory Report at c_bands before calling an iterative solver
           152 MiB given to the printing process from OS
             0 MiB allocation reported by mallinfo(arena+hblkhd)
         34542 MiB available memory on the node where the printing process lives
------------------
     ethr =  8.90E-06,  avg # of iterations =  4.6

     total cpu time spent up to now is      269.3 secs

     total energy              =    -517.49478642 Ry
     estimated scf accuracy    <       0.00805894 Ry

     total magnetization       =     1.11 Bohr mag/cell
     absolute magnetization    =     1.13 Bohr mag/cell

     iteration # 20     ecut=   140.00 Ry     beta= 0.70
     Davidson diagonalization with overlap

---- Real-time Memory Report at c_bands before calling an iterative solver
           152 MiB given to the printing process from OS
             0 MiB allocation reported by mallinfo(arena+hblkhd)
         34537 MiB available memory on the node where the printing process lives
------------------
     ethr =  8.90E-06,  avg # of iterations =  1.6

     total cpu time spent up to now is      278.3 secs

     total energy              =    -517.49475211 Ry
     estimated scf accuracy    <       0.00509360 Ry

     total magnetization       =     1.09 Bohr mag/cell
     absolute magnetization    =     1.11 Bohr mag/cell

     iteration # 21     ecut=   140.00 Ry     beta= 0.70
     Davidson diagonalization with overlap

---- Real-time Memory Report at c_bands before calling an iterative solver
           152 MiB given to the printing process from OS
             0 MiB allocation reported by mallinfo(arena+hblkhd)
         34543 MiB available memory on the node where the printing process lives
------------------
     ethr =  8.90E-06,  avg # of iterations =  1.6

     total cpu time spent up to now is      287.1 secs

     total energy              =    -517.49443580 Ry
     estimated scf accuracy    <       0.00323691 Ry

     total magnetization       =     1.08 Bohr mag/cell
     absolute magnetization    =     1.10 Bohr mag/cell

     iteration # 22     ecut=   140.00 Ry     beta= 0.70
     Davidson diagonalization with overlap

---- Real-time Memory Report at c_bands before calling an iterative solver
           152 MiB given to the printing process from OS
             0 MiB allocation reported by mallinfo(arena+hblkhd)
         34538 MiB available memory on the node where the printing process lives
------------------
     c_bands:  1 eigenvalues not converged
     c_bands:  2 eigenvalues not converged
     c_bands:  1 eigenvalues not converged
     c_bands:  1 eigenvalues not converged
     c_bands:  1 eigenvalues not converged
     c_bands:  1 eigenvalues not converged
     ethr =  5.78E-06,  avg # of iterations = 12.7

     total cpu time spent up to now is      303.0 secs

     total energy              =    -517.49606519 Ry
     estimated scf accuracy    <       0.01521522 Ry

     total magnetization       =     0.99 Bohr mag/cell
     absolute magnetization    =     1.01 Bohr mag/cell

     iteration # 23     ecut=   140.00 Ry     beta= 0.70
     Davidson diagonalization with overlap

---- Real-time Memory Report at c_bands before calling an iterative solver
           152 MiB given to the printing process from OS
             0 MiB allocation reported by mallinfo(arena+hblkhd)
         34537 MiB available memory on the node where the printing process lives
------------------
     c_bands:  1 eigenvalues not converged
     c_bands:  2 eigenvalues not converged
     ethr =  5.78E-06,  avg # of iterations =  2.3

     total cpu time spent up to now is      312.1 secs

     total energy              =    -517.49656403 Ry
     estimated scf accuracy    <       0.01557646 Ry

     total magnetization       =     0.99 Bohr mag/cell
     absolute magnetization    =     1.01 Bohr mag/cell

     iteration # 24     ecut=   140.00 Ry     beta= 0.70
     Davidson diagonalization with overlap

---- Real-time Memory Report at c_bands before calling an iterative solver
           152 MiB given to the printing process from OS
             0 MiB allocation reported by mallinfo(arena+hblkhd)
         34542 MiB available memory on the node where the printing process lives
------------------
     c_bands:  2 eigenvalues not converged
     ethr =  5.78E-06,  avg # of iterations =  1.9

     total cpu time spent up to now is      321.1 secs

     total energy              =    -517.49631011 Ry
     estimated scf accuracy    <       0.02121432 Ry

     total magnetization       =     0.97 Bohr mag/cell
     absolute magnetization    =     0.99 Bohr mag/cell

     iteration # 25     ecut=   140.00 Ry     beta= 0.70
     Davidson diagonalization with overlap

---- Real-time Memory Report at c_bands before calling an iterative solver
           152 MiB given to the printing process from OS
             0 MiB allocation reported by mallinfo(arena+hblkhd)
         34540 MiB available memory on the node where the printing process lives
------------------
     ethr =  5.78E-06,  avg # of iterations =  1.3

     total cpu time spent up to now is      330.2 secs

     total energy              =    -517.49583330 Ry
     estimated scf accuracy    <       0.01918376 Ry

     total magnetization       =     0.99 Bohr mag/cell
     absolute magnetization    =     1.01 Bohr mag/cell

     iteration # 26     ecut=   140.00 Ry     beta= 0.70
     Davidson diagonalization with overlap

---- Real-time Memory Report at c_bands before calling an iterative solver
           152 MiB given to the printing process from OS
             0 MiB allocation reported by mallinfo(arena+hblkhd)
         34544 MiB available memory on the node where the printing process lives
------------------
     ethr =  5.78E-06,  avg # of iterations =  1.0

     total cpu time spent up to now is      339.2 secs

     total energy              =    -517.49573857 Ry
     estimated scf accuracy    <       0.01515498 Ry

     total magnetization       =     1.02 Bohr mag/cell
     absolute magnetization    =     1.04 Bohr mag/cell

     iteration # 27     ecut=   140.00 Ry     beta= 0.70
     Davidson diagonalization with overlap

---- Real-time Memory Report at c_bands before calling an iterative solver
           152 MiB given to the printing process from OS
             0 MiB allocation reported by mallinfo(arena+hblkhd)
         34541 MiB available memory on the node where the printing process lives
------------------
     ethr =  5.78E-06,  avg # of iterations =  1.0

     total cpu time spent up to now is      347.7 secs

     total energy              =    -517.49558442 Ry
     estimated scf accuracy    <       0.01395685 Ry

     total magnetization       =     1.03 Bohr mag/cell
     absolute magnetization    =     1.05 Bohr mag/cell

     iteration # 28     ecut=   140.00 Ry     beta= 0.70
     Davidson diagonalization with overlap

---- Real-time Memory Report at c_bands before calling an iterative solver
           152 MiB given to the printing process from OS
             0 MiB allocation reported by mallinfo(arena+hblkhd)
         34540 MiB available memory on the node where the printing process lives
------------------
     ethr =  5.78E-06,  avg # of iterations =  1.0

     total cpu time spent up to now is      356.1 secs

     total energy              =    -517.49502393 Ry
     estimated scf accuracy    <       0.01234244 Ry

     total magnetization       =     1.03 Bohr mag/cell
     absolute magnetization    =     1.05 Bohr mag/cell

     iteration # 29     ecut=   140.00 Ry     beta= 0.70
     Davidson diagonalization with overlap

---- Real-time Memory Report at c_bands before calling an iterative solver
           152 MiB given to the printing process from OS
             0 MiB allocation reported by mallinfo(arena+hblkhd)
         34539 MiB available memory on the node where the printing process lives
------------------
     c_bands:  1 eigenvalues not converged
     c_bands:  1 eigenvalues not converged
     ethr =  5.78E-06,  avg # of iterations =  2.7

     total cpu time spent up to now is      364.9 secs

     total energy              =    -517.49491276 Ry
     estimated scf accuracy    <       0.00645327 Ry

     total magnetization       =     1.02 Bohr mag/cell
     absolute magnetization    =     1.05 Bohr mag/cell

     iteration # 30     ecut=   140.00 Ry     beta= 0.70
     Davidson diagonalization with overlap

---- Real-time Memory Report at c_bands before calling an iterative solver
           152 MiB given to the printing process from OS
             0 MiB allocation reported by mallinfo(arena+hblkhd)
         34539 MiB available memory on the node where the printing process lives
------------------
     ethr =  5.78E-06,  avg # of iterations =  3.5

     total cpu time spent up to now is      374.4 secs

     total energy              =    -517.49433850 Ry
     estimated scf accuracy    <       0.00350111 Ry

     total magnetization       =     1.02 Bohr mag/cell
     absolute magnetization    =     1.04 Bohr mag/cell

     iteration # 31     ecut=   140.00 Ry     beta= 0.70
     Davidson diagonalization with overlap

---- Real-time Memory Report at c_bands before calling an iterative solver
           153 MiB given to the printing process from OS
             0 MiB allocation reported by mallinfo(arena+hblkhd)
         34543 MiB available memory on the node where the printing process lives
------------------
     c_bands:  1 eigenvalues not converged
     c_bands:  2 eigenvalues not converged
     c_bands:  1 eigenvalues not converged
     c_bands:  3 eigenvalues not converged
     c_bands:  1 eigenvalues not converged
     c_bands:  1 eigenvalues not converged
     c_bands:  1 eigenvalues not converged
     c_bands:  2 eigenvalues not converged
     c_bands:  1 eigenvalues not converged
     c_bands:  1 eigenvalues not converged
     c_bands:  1 eigenvalues not converged
     ethr =  5.78E-06,  avg # of iterations = 14.9

     total cpu time spent up to now is      392.6 secs

     total energy              =    -517.49472775 Ry
     estimated scf accuracy    <       0.03793758 Ry

     total magnetization       =     1.03 Bohr mag/cell
     absolute magnetization    =     1.05 Bohr mag/cell

     iteration # 32     ecut=   140.00 Ry     beta= 0.70
     Davidson diagonalization with overlap

---- Real-time Memory Report at c_bands before calling an iterative solver
           153 MiB given to the printing process from OS
             0 MiB allocation reported by mallinfo(arena+hblkhd)
         34541 MiB available memory on the node where the printing process lives
------------------
     ethr =  5.78E-06,  avg # of iterations =  6.7

     total cpu time spent up to now is      403.2 secs

     total energy              =    -517.49459609 Ry
     estimated scf accuracy    <       0.01159181 Ry

     total magnetization       =     1.00 Bohr mag/cell
     absolute magnetization    =     1.02 Bohr mag/cell

     iteration # 33     ecut=   140.00 Ry     beta= 0.70
     Davidson diagonalization with overlap

---- Real-time Memory Report at c_bands before calling an iterative solver
           153 MiB given to the printing process from OS
             0 MiB allocation reported by mallinfo(arena+hblkhd)
         34542 MiB available memory on the node where the printing process lives
------------------
     c_bands:  1 eigenvalues not converged
     ethr =  5.78E-06,  avg # of iterations =  7.7

     total cpu time spent up to now is      414.9 secs

     total energy              =    -517.49527273 Ry
     estimated scf accuracy    <       0.00006286 Ry

     total magnetization       =     0.98 Bohr mag/cell
     absolute magnetization    =     1.00 Bohr mag/cell

     iteration # 34     ecut=   140.00 Ry     beta= 0.70
     Davidson diagonalization with overlap

---- Real-time Memory Report at c_bands before calling an iterative solver
           153 MiB given to the printing process from OS
             0 MiB allocation reported by mallinfo(arena+hblkhd)
         34542 MiB available memory on the node where the printing process lives
------------------
     c_bands:  1 eigenvalues not converged
     c_bands:  1 eigenvalues not converged
     c_bands:  3 eigenvalues not converged
     c_bands:  5 eigenvalues not converged
     c_bands:  3 eigenvalues not converged
     c_bands:  2 eigenvalues not converged
     c_bands:  5 eigenvalues not converged
     c_bands:  4 eigenvalues not converged
     c_bands:  1 eigenvalues not converged
     c_bands:  2 eigenvalues not converged
     c_bands:  3 eigenvalues not converged
     c_bands:  1 eigenvalues not converged
     c_bands:  4 eigenvalues not converged
     c_bands:  1 eigenvalues not converged
     c_bands:  2 eigenvalues not converged
     c_bands:  1 eigenvalues not converged
     c_bands:  1 eigenvalues not converged
     c_bands:  2 eigenvalues not converged
     c_bands:  1 eigenvalues not converged
     c_bands:  4 eigenvalues not converged
     c_bands:  3 eigenvalues not converged
     c_bands:  5 eigenvalues not converged
     c_bands:  1 eigenvalues not converged
     c_bands:  2 eigenvalues not converged
     c_bands:  2 eigenvalues not converged
     ethr =  1.12E-07,  avg # of iterations = 19.1

     total cpu time spent up to now is      438.9 secs

     total energy              =    -517.49546259 Ry
     estimated scf accuracy    <       0.00064542 Ry

     total magnetization       =     1.00 Bohr mag/cell
     absolute magnetization    =     1.02 Bohr mag/cell

     iteration # 35     ecut=   140.00 Ry     beta= 0.70
     Davidson diagonalization with overlap

---- Real-time Memory Report at c_bands before calling an iterative solver
           153 MiB given to the printing process from OS
             0 MiB allocation reported by mallinfo(arena+hblkhd)
         34542 MiB available memory on the node where the printing process lives
------------------
     c_bands:  1 eigenvalues not converged
     c_bands:  2 eigenvalues not converged
     c_bands:  2 eigenvalues not converged
     c_bands:  1 eigenvalues not converged
     c_bands:  4 eigenvalues not converged
     c_bands:  2 eigenvalues not converged
     c_bands:  1 eigenvalues not converged
     c_bands:  2 eigenvalues not converged
     c_bands:  4 eigenvalues not converged
     c_bands:  2 eigenvalues not converged
     ethr =  1.12E-07,  avg # of iterations =  8.7

     total cpu time spent up to now is      450.3 secs

     total energy              =    -517.49559368 Ry
     estimated scf accuracy    <       0.00038671 Ry

     total magnetization       =     0.99 Bohr mag/cell
     absolute magnetization    =     1.02 Bohr mag/cell

     iteration # 36     ecut=   140.00 Ry     beta= 0.70
     Davidson diagonalization with overlap

---- Real-time Memory Report at c_bands before calling an iterative solver
           153 MiB given to the printing process from OS
             0 MiB allocation reported by mallinfo(arena+hblkhd)
         34548 MiB available memory on the node where the printing process lives
------------------
     c_bands:  2 eigenvalues not converged
     c_bands:  2 eigenvalues not converged
     c_bands:  3 eigenvalues not converged
     c_bands:  2 eigenvalues not converged
     c_bands:  4 eigenvalues not converged
     c_bands:  5 eigenvalues not converged
     c_bands:  2 eigenvalues not converged
     c_bands:  4 eigenvalues not converged
     c_bands:  4 eigenvalues not converged
     c_bands:  4 eigenvalues not converged
     c_bands:  5 eigenvalues not converged
     c_bands:  4 eigenvalues not converged
     c_bands:  3 eigenvalues not converged
     c_bands:  1 eigenvalues not converged
     c_bands:  2 eigenvalues not converged
     c_bands:  1 eigenvalues not converged
     c_bands:  1 eigenvalues not converged
     c_bands:  2 eigenvalues not converged
     c_bands:  1 eigenvalues not converged
     c_bands:  2 eigenvalues not converged
     c_bands:  3 eigenvalues not converged
     c_bands:  4 eigenvalues not converged
     c_bands:  5 eigenvalues not converged
     c_bands:  2 eigenvalues not converged
     c_bands:  1 eigenvalues not converged
     c_bands:  1 eigenvalues not converged
     c_bands:  2 eigenvalues not converged
     c_bands:  1 eigenvalues not converged
     c_bands:  3 eigenvalues not converged
     ethr =  1.12E-07,  avg # of iterations = 19.0

     total cpu time spent up to now is      473.9 secs

     total energy              =    -517.49604739 Ry
     estimated scf accuracy    <       0.01112079 Ry

     total magnetization       =     1.02 Bohr mag/cell
     absolute magnetization    =     1.04 Bohr mag/cell

     iteration # 37     ecut=   140.00 Ry     beta= 0.70
     Davidson diagonalization with overlap

---- Real-time Memory Report at c_bands before calling an iterative solver
           153 MiB given to the printing process from OS
             0 MiB allocation reported by mallinfo(arena+hblkhd)
         34542 MiB available memory on the node where the printing process lives
------------------
     c_bands:  2 eigenvalues not converged
     c_bands:  1 eigenvalues not converged
     c_bands:  2 eigenvalues not converged
     c_bands:  2 eigenvalues not converged
     c_bands:  4 eigenvalues not converged
     c_bands:  4 eigenvalues not converged
     c_bands:  3 eigenvalues not converged
     c_bands:  2 eigenvalues not converged
     c_bands:  1 eigenvalues not converged
     c_bands:  3 eigenvalues not converged
     c_bands:  2 eigenvalues not converged
     c_bands:  1 eigenvalues not converged
     c_bands:  2 eigenvalues not converged
     c_bands:  2 eigenvalues not converged
     c_bands:  3 eigenvalues not converged
     c_bands:  4 eigenvalues not converged
     c_bands:  3 eigenvalues not converged
     c_bands:  1 eigenvalues not converged
     c_bands:  1 eigenvalues not converged
     c_bands:  2 eigenvalues not converged
     ethr =  1.12E-07,  avg # of iterations = 16.8

     total cpu time spent up to now is      492.9 secs

     total energy              =    -517.49552860 Ry
     estimated scf accuracy    <       0.02000411 Ry

     total magnetization       =     1.05 Bohr mag/cell
     absolute magnetization    =     1.07 Bohr mag/cell

     iteration # 38     ecut=   140.00 Ry     beta= 0.70
     Davidson diagonalization with overlap

---- Real-time Memory Report at c_bands before calling an iterative solver
           153 MiB given to the printing process from OS
             0 MiB allocation reported by mallinfo(arena+hblkhd)
         34545 MiB available memory on the node where the printing process lives
------------------
     c_bands:  1 eigenvalues not converged
     c_bands:  2 eigenvalues not converged
     c_bands:  2 eigenvalues not converged
     c_bands:  3 eigenvalues not converged
     c_bands:  2 eigenvalues not converged
     c_bands:  4 eigenvalues not converged
     c_bands:  3 eigenvalues not converged
     c_bands:  3 eigenvalues not converged
     c_bands:  1 eigenvalues not converged
     c_bands:  1 eigenvalues not converged
     c_bands:  1 eigenvalues not converged
     c_bands:  1 eigenvalues not converged
     c_bands:  1 eigenvalues not converged
     c_bands:  2 eigenvalues not converged
     c_bands:  3 eigenvalues not converged
     c_bands:  4 eigenvalues not converged
     c_bands:  4 eigenvalues not converged
     c_bands:  2 eigenvalues not converged
     c_bands:  1 eigenvalues not converged
     c_bands:  1 eigenvalues not converged
     c_bands:  1 eigenvalues not converged
     ethr =  1.12E-07,  avg # of iterations = 17.9

     total cpu time spent up to now is      515.5 secs

     total energy              =    -517.49597037 Ry
     estimated scf accuracy    <       0.00701087 Ry

     total magnetization       =     1.01 Bohr mag/cell
     absolute magnetization    =     1.03 Bohr mag/cell

     iteration # 39     ecut=   140.00 Ry     beta= 0.70
     Davidson diagonalization with overlap

---- Real-time Memory Report at c_bands before calling an iterative solver
           153 MiB given to the printing process from OS
             0 MiB allocation reported by mallinfo(arena+hblkhd)
         34544 MiB available memory on the node where the printing process lives
------------------
     c_bands:  1 eigenvalues not converged
     c_bands:  2 eigenvalues not converged
     c_bands:  1 eigenvalues not converged
     c_bands:  2 eigenvalues not converged
     c_bands:  4 eigenvalues not converged
     c_bands:  2 eigenvalues not converged
     c_bands:  2 eigenvalues not converged
     c_bands:  5 eigenvalues not converged
     c_bands:  3 eigenvalues not converged
     c_bands:  5 eigenvalues not converged
     c_bands:  1 eigenvalues not converged
     c_bands:  2 eigenvalues not converged
     c_bands:  1 eigenvalues not converged
     c_bands:  1 eigenvalues not converged
     c_bands:  1 eigenvalues not converged
     c_bands:  1 eigenvalues not converged
     c_bands:  4 eigenvalues not converged
     c_bands:  3 eigenvalues not converged
     c_bands:  1 eigenvalues not converged
     c_bands:  1 eigenvalues not converged
     c_bands:  1 eigenvalues not converged
     ethr =  1.12E-07,  avg # of iterations = 17.9

     total cpu time spent up to now is      536.1 secs

     total energy              =    -517.49553055 Ry
     estimated scf accuracy    <       0.01858478 Ry

     total magnetization       =     1.02 Bohr mag/cell
     absolute magnetization    =     1.04 Bohr mag/cell

     iteration # 40     ecut=   140.00 Ry     beta= 0.70
     Davidson diagonalization with overlap

---- Real-time Memory Report at c_bands before calling an iterative solver
           153 MiB given to the printing process from OS
             0 MiB allocation reported by mallinfo(arena+hblkhd)
         34539 MiB available memory on the node where the printing process lives
------------------
     c_bands:  1 eigenvalues not converged
     c_bands:  1 eigenvalues not converged
     c_bands:  1 eigenvalues not converged
     c_bands:  2 eigenvalues not converged
     c_bands:  1 eigenvalues not converged
     c_bands:  2 eigenvalues not converged
     c_bands:  2 eigenvalues not converged
     c_bands:  2 eigenvalues not converged
     c_bands:  2 eigenvalues not converged
     c_bands:  1 eigenvalues not converged
     c_bands:  1 eigenvalues not converged
     c_bands:  1 eigenvalues not converged
     c_bands:  3 eigenvalues not converged
     c_bands:  3 eigenvalues not converged
     c_bands:  2 eigenvalues not converged
     ethr =  1.12E-07,  avg # of iterations = 16.9

     total cpu time spent up to now is      556.8 secs

     total energy              =    -517.49573116 Ry
     estimated scf accuracy    <       0.00715340 Ry

     total magnetization       =     0.91 Bohr mag/cell
     absolute magnetization    =     0.93 Bohr mag/cell

     iteration # 41     ecut=   140.00 Ry     beta= 0.70
     Davidson diagonalization with overlap

---- Real-time Memory Report at c_bands before calling an iterative solver
           153 MiB given to the printing process from OS
             0 MiB allocation reported by mallinfo(arena+hblkhd)
         34538 MiB available memory on the node where the printing process lives
------------------
     c_bands:  1 eigenvalues not converged
     c_bands:  2 eigenvalues not converged
     c_bands:  3 eigenvalues not converged
     c_bands:  2 eigenvalues not converged
     c_bands:  1 eigenvalues not converged
     c_bands:  1 eigenvalues not converged
     c_bands:  3 eigenvalues not converged
     c_bands:  2 eigenvalues not converged
     ethr =  1.12E-07,  avg # of iterations =  5.5

     total cpu time spent up to now is      566.7 secs

     total energy              =    -517.49554099 Ry
     estimated scf accuracy    <       0.00790122 Ry

     total magnetization       =     0.85 Bohr mag/cell
     absolute magnetization    =     0.87 Bohr mag/cell

     iteration # 42     ecut=   140.00 Ry     beta= 0.70
     Davidson diagonalization with overlap

---- Real-time Memory Report at c_bands before calling an iterative solver
           153 MiB given to the printing process from OS
             0 MiB allocation reported by mallinfo(arena+hblkhd)
         34538 MiB available memory on the node where the printing process lives
------------------
     c_bands:  1 eigenvalues not converged
     c_bands:  1 eigenvalues not converged
     c_bands:  2 eigenvalues not converged
     c_bands:  1 eigenvalues not converged
     c_bands:  2 eigenvalues not converged
     c_bands:  1 eigenvalues not converged
     c_bands:  1 eigenvalues not converged
     c_bands:  1 eigenvalues not converged
     c_bands:  3 eigenvalues not converged
     c_bands:  2 eigenvalues not converged
     c_bands:  1 eigenvalues not converged
     ethr =  1.12E-07,  avg # of iterations = 14.2

     total cpu time spent up to now is      583.2 secs

     total energy              =    -517.49539755 Ry
     estimated scf accuracy    <       0.00336485 Ry

     total magnetization       =     0.80 Bohr mag/cell
     absolute magnetization    =     0.81 Bohr mag/cell

     iteration # 43     ecut=   140.00 Ry     beta= 0.70
     Davidson diagonalization with overlap

---- Real-time Memory Report at c_bands before calling an iterative solver
           153 MiB given to the printing process from OS
             0 MiB allocation reported by mallinfo(arena+hblkhd)
         34546 MiB available memory on the node where the printing process lives
------------------
     c_bands:  4 eigenvalues not converged
     c_bands:  4 eigenvalues not converged
     c_bands:  1 eigenvalues not converged
     c_bands:  4 eigenvalues not converged
     c_bands:  1 eigenvalues not converged
     c_bands:  2 eigenvalues not converged
     c_bands:  2 eigenvalues not converged
     c_bands:  1 eigenvalues not converged
     c_bands:  1 eigenvalues not converged
     c_bands:  1 eigenvalues not converged
     c_bands:  2 eigenvalues not converged
     c_bands:  1 eigenvalues not converged
     c_bands:  3 eigenvalues not converged
     c_bands:  4 eigenvalues not converged
     c_bands:  2 eigenvalues not converged
     c_bands:  1 eigenvalues not converged
     c_bands:  1 eigenvalues not converged
     c_bands:  2 eigenvalues not converged
     c_bands:  2 eigenvalues not converged
     ethr =  1.12E-07,  avg # of iterations = 17.9

     total cpu time spent up to now is      605.4 secs

     total energy              =    -517.49552646 Ry
     estimated scf accuracy    <       0.00000768 Ry

     total magnetization       =     0.79 Bohr mag/cell
     absolute magnetization    =     0.81 Bohr mag/cell

     iteration # 44     ecut=   140.00 Ry     beta= 0.70
     Davidson diagonalization with overlap

---- Real-time Memory Report at c_bands before calling an iterative solver
           153 MiB given to the printing process from OS
             0 MiB allocation reported by mallinfo(arena+hblkhd)
         34551 MiB available memory on the node where the printing process lives
------------------
     c_bands:  2 eigenvalues not converged
     c_bands:  2 eigenvalues not converged
     c_bands:  1 eigenvalues not converged
     c_bands:  2 eigenvalues not converged
     c_bands:  1 eigenvalues not converged
     c_bands:  4 eigenvalues not converged
     c_bands:  2 eigenvalues not converged
     c_bands:  2 eigenvalues not converged
     c_bands:  1 eigenvalues not converged
     c_bands:  2 eigenvalues not converged
     c_bands:  1 eigenvalues not converged
     c_bands:  2 eigenvalues not converged
     c_bands:  4 eigenvalues not converged
     c_bands:  3 eigenvalues not converged
     c_bands:  1 eigenvalues not converged
     ethr =  1.37E-08,  avg # of iterations = 16.8

     total cpu time spent up to now is      625.8 secs

     total energy              =    -517.49533576 Ry
     estimated scf accuracy    <       0.00013563 Ry

     total magnetization       =     0.78 Bohr mag/cell
     absolute magnetization    =     0.79 Bohr mag/cell

     iteration # 45     ecut=   140.00 Ry     beta= 0.70
     Davidson diagonalization with overlap

---- Real-time Memory Report at c_bands before calling an iterative solver
           153 MiB given to the printing process from OS
             0 MiB allocation reported by mallinfo(arena+hblkhd)
         34534 MiB available memory on the node where the printing process lives
------------------
     c_bands:  1 eigenvalues not converged
     c_bands:  4 eigenvalues not converged
     c_bands:  2 eigenvalues not converged
     c_bands:  4 eigenvalues not converged
     c_bands:  4 eigenvalues not converged
     c_bands:  2 eigenvalues not converged
     c_bands:  4 eigenvalues not converged
     c_bands:  4 eigenvalues not converged
     c_bands:  4 eigenvalues not converged
     c_bands:  3 eigenvalues not converged
     c_bands:  5 eigenvalues not converged
     c_bands:  2 eigenvalues not converged
     c_bands:  3 eigenvalues not converged
     c_bands:  4 eigenvalues not converged
     c_bands:  4 eigenvalues not converged
     c_bands:  2 eigenvalues not converged
     c_bands:  2 eigenvalues not converged
     c_bands:  2 eigenvalues not converged
     c_bands:  5 eigenvalues not converged
     c_bands:  2 eigenvalues not converged
     c_bands:  1 eigenvalues not converged
     c_bands:  2 eigenvalues not converged
     c_bands:  4 eigenvalues not converged
     c_bands:  5 eigenvalues not converged
     c_bands:  3 eigenvalues not converged
     c_bands:  4 eigenvalues not converged
     ethr =  1.37E-08,  avg # of iterations = 18.4

     total cpu time spent up to now is      652.2 secs

     total energy              =    -517.49522236 Ry
     estimated scf accuracy    <       0.00074061 Ry

     total magnetization       =     0.52 Bohr mag/cell
     absolute magnetization    =     0.54 Bohr mag/cell

     iteration # 46     ecut=   140.00 Ry     beta= 0.70
     Davidson diagonalization with overlap

---- Real-time Memory Report at c_bands before calling an iterative solver
           153 MiB given to the printing process from OS
             0 MiB allocation reported by mallinfo(arena+hblkhd)
         34541 MiB available memory on the node where the printing process lives
------------------
     c_bands:  2 eigenvalues not converged
     c_bands:  3 eigenvalues not converged
     c_bands:  2 eigenvalues not converged
     c_bands:  3 eigenvalues not converged
     c_bands:  3 eigenvalues not converged
     c_bands:  1 eigenvalues not converged
     c_bands:  2 eigenvalues not converged
     c_bands:  5 eigenvalues not converged
     c_bands:  4 eigenvalues not converged
     c_bands:  5 eigenvalues not converged
     c_bands:  5 eigenvalues not converged
     c_bands:  3 eigenvalues not converged
     c_bands:  2 eigenvalues not converged
     c_bands:  2 eigenvalues not converged
     c_bands:  4 eigenvalues not converged
     c_bands:  3 eigenvalues not converged
     c_bands:  1 eigenvalues not converged
     c_bands:  5 eigenvalues not converged
     c_bands:  3 eigenvalues not converged
     c_bands:  3 eigenvalues not converged
     c_bands:  3 eigenvalues not converged
     c_bands:  2 eigenvalues not converged
     c_bands:  2 eigenvalues not converged
     c_bands:  3 eigenvalues not converged
     ethr =  1.37E-08,  avg # of iterations = 18.6

     total cpu time spent up to now is      678.2 secs

     total energy              =    -517.49556448 Ry
     estimated scf accuracy    <       0.00028944 Ry

     total magnetization       =     0.22 Bohr mag/cell
     absolute magnetization    =     0.22 Bohr mag/cell

     iteration # 47     ecut=   140.00 Ry     beta= 0.70
     Davidson diagonalization with overlap

---- Real-time Memory Report at c_bands before calling an iterative solver
           153 MiB given to the printing process from OS
             0 MiB allocation reported by mallinfo(arena+hblkhd)
         34545 MiB available memory on the node where the printing process lives
------------------
     c_bands:  2 eigenvalues not converged
     c_bands:  1 eigenvalues not converged
     c_bands:  2 eigenvalues not converged
     c_bands:  3 eigenvalues not converged
     c_bands:  3 eigenvalues not converged
     c_bands:  2 eigenvalues not converged
     c_bands:  2 eigenvalues not converged
     c_bands:  2 eigenvalues not converged
     c_bands:  3 eigenvalues not converged
     c_bands:  1 eigenvalues not converged
     c_bands:  2 eigenvalues not converged
     c_bands:  1 eigenvalues not converged
     c_bands:  1 eigenvalues not converged
[...]
    23.0257  23.3039  23.4399  23.5055  23.5836  23.5840  23.7267  23.7274

     occupation numbers 
     1.0000   1.0000   1.0000   1.0000   1.0000   1.0000   1.0000   1.0000
     1.0000   1.0000   1.0000   1.0000   1.0000   1.0000   1.0000   1.0000
     1.0000   1.0000   1.0000   1.0000   1.0000   1.0000   1.0001   1.0061
     0.7499   0.4473   0.3142   0.2586   0.2005   0.2002   0.1183   0.1180

          k = 0.0000 0.1667 0.3333 ( 16456 PWs)   bands (ev):

   -20.5001 -20.1162 -19.9571 -19.9274   2.6621   2.7774   2.9050   3.5365
     4.0467   4.6095   4.8133   4.9170   4.9540   5.2079   5.8533   6.2357
    20.0595  20.2478  20.5612  20.6043  20.8871  21.3132  21.4711  22.2096
    22.5700  22.9747  23.3392  23.4161  23.4449  23.4899  23.5059  23.6621

     occupation numbers 
     1.0000   1.0000   1.0000   1.0000   1.0000   1.0000   1.0000   1.0000
     1.0000   1.0000   1.0000   1.0000   1.0000   1.0000   1.0000   1.0000
     1.0000   1.0000   1.0000   1.0000   1.0001   1.0015   1.0040   1.0708
     1.0616   0.8017   0.4109   0.3360   0.3097   0.2712   0.2582   0.1517

          k = 0.0000 0.1667-0.5000 ( 16436 PWs)   bands (ev):

   -20.3116 -20.3106 -19.9420 -19.9409   3.0465   3.0470   3.3718   3.3727
     3.6712   3.6718   4.8744   4.8749   5.3654   5.3661   5.7378   5.7383
    20.9377  20.9383  21.1129  21.1130  21.1520  21.1523  22.6039  22.6043
    22.6824  22.6831  22.7965  22.7966  23.1321  23.1331  23.8492  23.8493

     occupation numbers 
     1.0000   1.0000   1.0000   1.0000   1.0000   1.0000   1.0000   1.0000
     1.0000   1.0000   1.0000   1.0000   1.0000   1.0000   1.0000   1.0000
     1.0001   1.0001   1.0004   1.0004   1.0005   1.0005   1.0517   1.0516
     1.0206   1.0203   0.9538   0.9538   0.6349   0.6338   0.0706   0.0706

          k = 0.0000 0.3333 0.3333 ( 16436 PWs)   bands (ev):

   -20.3884 -20.0754 -20.0744 -19.9658   2.8166   2.8173   3.0850   3.1613
     3.8575   4.3809   4.3818   5.3467   5.3708   5.3714   5.4162   6.2864
    20.1507  21.1526  21.1526  21.4719  21.6179  21.6181  21.6262  22.3841
    22.5316  22.5321  22.8904  23.4121  23.4388  23.5968  23.6259  23.6543

     occupation numbers 
     1.0000   1.0000   1.0000   1.0000   1.0000   1.0000   1.0000   1.0000
     1.0000   1.0000   1.0000   1.0000   1.0000   1.0000   1.0000   1.0000
     1.0000   1.0005   1.0005   1.0041   1.0089   1.0089   1.0093   1.0833
     1.0703   1.0702   0.8801   0.3396   0.3153   0.1916   0.1730   0.1561

          k = 0.0000 0.3333-0.5000 ( 16450 PWs)   bands (ev):

   -20.2337 -20.2326 -20.0202 -20.0191   2.8446   2.8448   3.2176   3.2179
     3.7344   3.7352   4.8734   4.8741   5.4680   5.4682   5.9498   5.9500
    20.9038  20.9040  21.7377  21.7381  21.8092  21.8095  22.0869  22.0876
    22.6987  22.6990  22.7564  22.7567  23.6095  23.6109  23.6309  23.6323

     occupation numbers 
     1.0000   1.0000   1.0000   1.0000   1.0000   1.0000   1.0000   1.0000
     1.0000   1.0000   1.0000   1.0000   1.0000   1.0000   1.0000   1.0000
     1.0001   1.0001   1.0158   1.0158   1.0215   1.0215   1.0545   1.0546
     1.0127   1.0125   0.9802   0.9800   0.1834   0.1825   0.1700   0.1691

          k = 0.0000-0.5000-0.5000 ( 16484 PWs)   bands (ev):

   -20.1270 -20.1270 -20.1270 -20.1248   2.8990   2.8990   2.8998   2.8998
     4.2725   4.2725   4.2725   4.2741   5.8788   5.8788   5.8796   5.8796
    21.1587  21.1587  21.1591  21.1593  22.5275  22.5275  22.5279  22.5279
    22.6617  22.6623  22.6630  22.6630  23.4058  23.4068  23.4068  23.4091

     occupation numbers 
     1.0000   1.0000   1.0000   1.0000   1.0000   1.0000   1.0000   1.0000
     1.0000   1.0000   1.0000   1.0000   1.0000   1.0000   1.0000   1.0000
     1.0005   1.0005   1.0005   1.0005   1.0711   1.0711   1.0710   1.0710
     1.0300   1.0297   1.0294   1.0294   0.3455   0.3446   0.3446   0.3424

          k = 0.1667 0.1667 0.1667 ( 16473 PWs)   bands (ev):

   -20.5893 -19.9692 -19.9692 -19.9676   2.4697   2.4701   2.4701   4.3050
     4.3050   4.3060   4.9946   4.9952   4.9952   5.0136   6.3621   6.3621
    19.5822  19.5822  19.5825  19.8519  21.0067  21.0067  21.0068  21.7331
    23.0032  23.3783  23.3783  23.5670  23.5670  23.5674  23.6296  23.6296

     occupation numbers 
     1.0000   1.0000   1.0000   1.0000   1.0000   1.0000   1.0000   1.0000
     1.0000   1.0000   1.0000   1.0000   1.0000   1.0000   1.0000   1.0000
     1.0000   1.0000   1.0000   1.0000   1.0002   1.0002   1.0002   1.0155
     0.7731   0.3719   0.3719   0.2121   0.2121   0.2118   0.1708   0.1708

          k = 0.1667 0.1667 0.3333 ( 16448 PWs)   bands (ev):

   -20.4628 -20.1046 -19.9673 -19.9662   2.6014   2.6018   2.7801   3.9556
     3.9564   4.1468   4.8789   5.0716   5.0721   5.2594   6.0459   6.1632
    20.1712  20.2517  20.2518  20.4499  21.2926  22.0398  22.2416  22.2416
    22.5832  22.9699  22.9702  23.1458  23.4946  23.4950  23.5761  23.6009

     occupation numbers 
     1.0000   1.0000   1.0000   1.0000   1.0000   1.0000   1.0000   1.0000
     1.0000   1.0000   1.0000   1.0000   1.0000   1.0000   1.0000   1.0000
     1.0000   1.0000   1.0000   1.0000   1.0013   1.0480   1.0744   1.0744
     1.0580   0.8065   0.8062   0.6197   0.2674   0.2670   0.2057   0.1889

          k = 0.1667 0.1667-0.5000 ( 16418 PWs)   bands (ev):

   -20.2866 -20.2855 -19.9664 -19.9653   2.6787   2.6791   3.3524   3.3527
     3.8072   3.8081   5.0710   5.0715   5.5850   5.5852   5.6395   5.6402
    20.6831  20.6836  21.0953  21.0954  21.8258  21.8259  22.1368  22.1369
    22.5359  22.5362  22.9931  22.9935  23.3055  23.3068  23.7703  23.7703

     occupation numbers 
     1.0000   1.0000   1.0000   1.0000   1.0000   1.0000   1.0000   1.0000
     1.0000   1.0000   1.0000   1.0000   1.0000   1.0000   1.0000   1.0000
     1.0000   1.0000   1.0003   1.0003   1.0230   1.0230   1.0614   1.0614
     1.0694   1.0694   0.7833   0.7829   0.4456   0.4443   0.0992   0.0991

          k = 0.1667 0.3333 0.3333 ( 16424 PWs)   bands (ev):

   -20.3599 -20.0741 -20.0730 -19.9939   2.4662   2.5487   2.5491   3.4048
     4.0312   4.6571   4.6578   5.4069   5.4214   5.4220   5.7577   6.2206
    20.3174  20.4284  20.7290  20.7292  22.0449  22.0452  22.2555  22.6258
    22.6258  22.7114  22.9210  23.1057  23.4472  23.4696  23.5977  23.5985

     occupation numbers 
     1.0000   1.0000   1.0000   1.0000   1.0000   1.0000   1.0000   1.0000
     1.0000   1.0000   1.0000   1.0000   1.0000   1.0000   1.0000   1.0000
     1.0000   1.0000   1.0000   1.0000   1.0487   1.0488   1.0759   1.0442
     1.0442   1.0061   0.8529   0.6639   0.3077   0.2882   0.1911   0.1906

          k = 0.1667 0.3333-0.5000 ( 16444 PWs)   bands (ev):

   -20.2183 -20.2172 -20.0333 -20.0323   2.4188   2.4191   2.8250   2.8251
     4.3207   4.3214   5.2739   5.2744   5.5204   5.5206   5.9096   5.9098
    20.8459  20.8463  21.0336  21.0337  21.8548  21.8549  21.8627  21.8629
    22.8189  22.8197  23.1337  23.1341  23.5084  23.5100  23.6026  23.6028

     occupation numbers 
     1.0000   1.0000   1.0000   1.0000   1.0000   1.0000   1.0000   1.0000
     1.0000   1.0000   1.0000   1.0000   1.0000   1.0000   1.0000   1.0000
     1.0000   1.0000   1.0002   1.0002   1.0258   1.0258   1.0266   1.0266
     0.9377   0.9371   0.6332   0.6327   0.2562   0.2550   0.1878   0.1877

          k = 0.1667-0.5000-0.5000 ( 16424 PWs)   bands (ev):

   -20.1255 -20.1255 -20.1255 -20.1233   2.4704   2.4706   2.4709   2.4709
     4.8155   4.8156   4.8156   4.8167   5.8816   5.8817   5.8824   5.8824
    21.0492  21.0492  21.0497  21.0498  21.6692  21.6692  21.6692  21.6692
    23.2322  23.2327  23.2334  23.2334  23.4236  23.4246  23.4246  23.4266

     occupation numbers 
     1.0000   1.0000   1.0000   1.0000   1.0000   1.0000   1.0000   1.0000
     1.0000   1.0000   1.0000   1.0000   1.0000   1.0000   1.0000   1.0000
     1.0002   1.0002   1.0002   1.0002   1.0115   1.0115   1.0115   1.0115
     0.5243   0.5237   0.5230   0.5230   0.3290   0.3281   0.3281   0.3263

          k = 0.3333 0.3333 0.3333 ( 16452 PWs)   bands (ev):

   -20.2823 -20.0715 -20.0715 -20.0699   2.1672   2.1676   2.1676   2.7197
     5.0032   5.0032   5.0043   5.5728   5.5734   5.5734   6.0429   6.0429
    19.8929  20.5917  20.5917  20.5920  21.8210  21.8210  21.8213  22.2808
    23.1149  23.1153  23.1153  23.5115  23.5115  23.5128  23.5188  23.5188

     occupation numbers 
     1.0000   1.0000   1.0000   1.0000   1.0000   1.0000   1.0000   1.0000
     1.0000   1.0000   1.0000   1.0000   1.0000   1.0000   1.0000   1.0000
     1.0000   1.0000   1.0000   1.0000   1.0226   1.0226   1.0226   1.0783
     0.6538   0.6534   0.6534   0.2537   0.2537   0.2527   0.2480   0.2480

          k = 0.3333 0.3333-0.5000 ( 16476 PWs)   bands (ev):

   -20.1770 -20.1760 -20.0702 -20.0691   2.0149   2.0151   2.2625   2.2627
     5.1077   5.1084   5.6786   5.6789   5.7704   5.7706   5.8048   5.8055
    20.1527  20.1531  20.7647  20.7649  21.4477  21.4478  21.9236  21.9238
    23.2974  23.2986  23.3132  23.3135  23.4812  23.4828  23.5396  23.5396

     occupation numbers 
     1.0000   1.0000   1.0000   1.0000   1.0000   1.0000   1.0000   1.0000
     1.0000   1.0000   1.0000   1.0000   1.0000   1.0000   1.0000   1.0000
     1.0000   1.0000   1.0000   1.0000   1.0035   1.0035   1.0332   1.0333
     0.4541   0.4529   0.4376   0.4372   0.2785   0.2771   0.2321   0.2321

          k = 0.3333-0.5000-0.5000 ( 16452 PWs)   bands (ev):

   -20.1225 -20.1225 -20.1225 -20.1203   1.9567   1.9572   1.9572   1.9572
     5.5702   5.5704   5.5704   5.5712   5.8872   5.8873   5.8880   5.8880
    20.1265  20.1265  20.1266  20.1272  21.7978  21.7978  21.7978  21.7981
    23.4299  23.4307  23.4316  23.4316  23.4505  23.4517  23.4517  23.4530

     occupation numbers 
     1.0000   1.0000   1.0000   1.0000   1.0000   1.0000   1.0000   1.0000
     1.0000   1.0000   1.0000   1.0000   1.0000   1.0000   1.0000   1.0000
     1.0000   1.0000   1.0000   1.0000   1.0205   1.0205   1.0205   1.0205
     0.3233   0.3226   0.3217   0.3217   0.3048   0.3038   0.3038   0.3026

          k =-0.5000-0.5000-0.5000 ( 16560 PWs)   bands (ev):

   -20.1210 -20.1210 -20.1210 -20.1188   1.7643   1.7648   1.7648   1.7648
     5.8900   5.8900   5.8900   5.8901   5.8901   5.8911   5.8911   5.8911
    19.6867  19.6867  19.6867  19.6874  21.9889  21.9889  21.9889  21.9893
    23.4612  23.4612  23.4620  23.4620  23.4620  23.4635  23.4635  23.4635

     occupation numbers 
     1.0000   1.0000   1.0000   1.0000   1.0000   1.0000   1.0000   1.0000
     1.0000   1.0000   1.0000   1.0000   1.0000   1.0000   1.0000   1.0000
     1.0000   1.0000   1.0000   1.0000   1.0413   1.0413   1.0413   1.0413
     0.2955   0.2955   0.2948   0.2948   0.2948   0.2935   0.2935   0.2935

     the Fermi energy is    23.3493 ev

!    total energy              =    -517.49561153 Ry
     estimated scf accuracy    <          6.5E-09 Ry
     smearing contrib. (-TS)   =      -0.04596692 Ry
     internal energy E=F+TS    =    -517.44964461 Ry

     The total energy is F=E-TS. E is the sum of the following terms:
     one-electron contribution =      40.79778253 Ry
     hartree contribution      =      37.39430236 Ry
     xc contribution           =    -166.58660064 Ry
     ewald contribution        =    -429.05512886 Ry

     total magnetization       =     0.03 Bohr mag/cell
     absolute magnetization    =     0.03 Bohr mag/cell

     convergence has been achieved in 106 iterations

     Forces acting on atoms (cartesian axes, Ry/au):

     atom    1 type  1   force =     0.00000000    0.00000000    0.00000000
     atom    2 type  1   force =     0.00000000    0.00000000    0.00000000
     atom    3 type  1   force =     0.00000000    0.00000000    0.00000000
     atom    4 type  1   force =     0.00000000    0.00000000    0.00000000
     The non-local contrib.  to forces
     atom    1 type  1   force =     0.00000000    0.00000000    0.00000000
     atom    2 type  1   force =     0.00000000    0.00000000    0.00000000
     atom    3 type  1   force =     0.00000000    0.00000000    0.00000000
     atom    4 type  1   force =     0.00000000    0.00000000    0.00000000
     The ionic contribution  to forces
     atom    1 type  1   force =    -0.00000000   -0.00000000   -0.00000000
     atom    2 type  1   force =     0.00000000    0.00000000   -0.00000000
     atom    3 type  1   force =     0.00000000   -0.00000000    0.00000000
     atom    4 type  1   force =    -0.00000000    0.00000000    0.00000000
     The local contribution  to forces
     atom    1 type  1   force =     0.00000000    0.00000000    0.00000000
     atom    2 type  1   force =     0.00000000    0.00000000    0.00000000
     atom    3 type  1   force =     0.00000000   -0.00000000    0.00000000
     atom    4 type  1   force =     0.00000000    0.00000000    0.00000000
     The core correction contribution to forces
     atom    1 type  1   force =     0.00000000    0.00000000    0.00000000
     atom    2 type  1   force =    -0.00000000   -0.00000000    0.00000000
     atom    3 type  1   force =    -0.00000000    0.00000000   -0.00000000
     atom    4 type  1   force =     0.00000000    0.00000000   -0.00000000
     The Hubbard contrib.    to forces
     atom    1 type  1   force =     0.00000000    0.00000000    0.00000000
     atom    2 type  1   force =     0.00000000    0.00000000    0.00000000
     atom    3 type  1   force =     0.00000000    0.00000000    0.00000000
     atom    4 type  1   force =     0.00000000    0.00000000    0.00000000
     The SCF correction term to forces
     atom    1 type  1   force =     0.00000000    0.00000000    0.00000000
     atom    2 type  1   force =     0.00000000    0.00000000    0.00000000
     atom    3 type  1   force =     0.00000000    0.00000000    0.00000000
     atom    4 type  1   force =     0.00000000    0.00000000    0.00000000

     Total force =     0.000000     Total SCF correction =     0.000000


     Computing stress (Cartesian axis) and pressure

          total   stress  (Ry/bohr**3)                   (kbar)     P=       -3.77
  -0.00002564   0.00000000   0.00000000           -3.77        0.00        0.00
   0.00000000  -0.00002564   0.00000000            0.00       -3.77        0.00
   0.00000000   0.00000000  -0.00002564            0.00        0.00       -3.77

     kinetic stress (kbar)  31267.15      0.00      0.00
                                0.00  31267.15      0.00
                                0.00      0.00  31267.15

     local   stress (kbar)   8433.44     -0.00      0.00
                               -0.00   8433.44      0.00
                                0.00      0.00   8433.44

     nonloc. stress (kbar)   -518.60      0.00      0.00
                                0.00   -518.60      0.00
                                0.00      0.00   -518.60

     hartree stress (kbar)   3118.34      0.00      0.00
                                0.00   3118.34      0.00
                                0.00      0.00   3118.34

     exc-cor stress (kbar)  21053.33     -0.00     -0.00
                               -0.00  21053.33     -0.00
                               -0.00     -0.00  21053.33

     corecor stress (kbar) -27578.15      0.00     -0.00
                                0.00 -27578.15      0.00
                               -0.00      0.00 -27578.15

     ewald   stress (kbar) -35779.30      0.00      0.00
                                0.00 -35779.30     -0.00
                                0.00     -0.00 -35779.30

     hubbard stress (kbar)      0.00      0.00      0.00
                                0.00      0.00      0.00
                                0.00      0.00      0.00

     DFT-D   stress (kbar)      0.00      0.00      0.00
                                0.00      0.00      0.00
                                0.00      0.00      0.00

     XDM     stress (kbar)      0.00      0.00      0.00
                                0.00      0.00      0.00
                                0.00      0.00      0.00

     dft-nl  stress (kbar)      0.00      0.00      0.00
                                0.00      0.00      0.00
                                0.00      0.00      0.00

     TS-vdW  stress (kbar)      0.00      0.00      0.00
                                0.00      0.00      0.00
                                0.00      0.00      0.00


                                0.00      0.00      0.00
                                0.00      0.00      0.00


                                0.00      0.00      0.00


     Writing output data file ./Uranium.save/

     init_run     :      4.87s CPU      5.07s WALL (       1 calls)
     electrons    :   2322.14s CPU   2368.16s WALL (       1 calls)
     forces       :      4.21s CPU      4.35s WALL (       1 calls)
     stress       :      7.78s CPU      8.15s WALL (       1 calls)

     Called by init_run:
     wfcinit      :      2.41s CPU      2.44s WALL (       1 calls)
     wfcinit:wfcr :      2.24s CPU      2.26s WALL (      40 calls)
     potinit      :      0.43s CPU      0.44s WALL (       1 calls)
     hinit0       :      0.74s CPU      0.76s WALL (       1 calls)

     Called by electrons:
     c_bands      :   2021.82s CPU   2042.38s WALL (     106 calls)
     sum_band     :    190.19s CPU    203.36s WALL (     106 calls)
     v_of_rho     :     13.16s CPU     13.27s WALL (     107 calls)
     v_h          :      0.33s CPU      0.33s WALL (     107 calls)
     v_xc         :     13.08s CPU     13.18s WALL (     109 calls)
     newd         :     94.72s CPU    106.81s WALL (     107 calls)
     mix_rho      :      2.05s CPU      2.14s WALL (     106 calls)

     Called by c_bands:
     init_us_2    :      7.82s CPU      8.08s WALL (    8600 calls)
     cegterg      :   1977.76s CPU   1997.64s WALL (    4741 calls)

     Called by sum_band:
     sum_band:wei :      0.46s CPU      0.47s WALL (     106 calls)
     sum_band:loo :     93.39s CPU     94.62s WALL (     106 calls)
     sum_band:buf :      0.39s CPU      0.41s WALL (    4240 calls)
     sum_band:ini :      3.57s CPU      3.66s WALL (    4240 calls)
     sum_band:cal :     31.45s CPU     31.69s WALL (    4240 calls)
     sum_band:bec :      2.62s CPU      2.64s WALL (    4240 calls)
     addusdens    :     73.08s CPU     84.15s WALL (     106 calls)
     addusd:skk   :      0.04s CPU      0.04s WALL (     106 calls)
     addusd:dgemm :     20.36s CPU     28.78s WALL (     212 calls)
     addusd:qvan2 :     48.75s CPU     49.16s WALL (     212 calls)

     Called by *egterg:
     cdiaghg      :    259.37s CPU    260.71s WALL (   73011 calls)
     cegterg:over :    156.97s CPU    158.95s WALL (   68270 calls)
     cegterg:upda :     61.69s CPU     62.10s WALL (   68270 calls)
     cegterg:last :    214.85s CPU    215.71s WALL (   23788 calls)
     h_psi        :   1036.47s CPU   1049.81s WALL (   73051 calls)
     s_psi        :    192.55s CPU    193.64s WALL (   73051 calls)
     g_psi        :      3.54s CPU      3.58s WALL (   68270 calls)

     Called by h_psi:
     h_psi:calbec :    194.96s CPU    196.99s WALL (   73051 calls)
     vloc_psi     :    646.26s CPU    656.63s WALL (   73051 calls)
     add_vuspsi   :    192.83s CPU    193.78s WALL (   73051 calls)

     General routines
     calbec       :    227.80s CPU    230.15s WALL (   77491 calls)
     fft          :      6.70s CPU      6.80s WALL (    2713 calls)
     ffts         :      0.39s CPU      0.39s WALL (     426 calls)
     fftw         :    668.09s CPU    678.78s WALL ( 1734854 calls)
     interpolate  :      0.71s CPU      0.72s WALL (     214 calls)

     Parallel routines

     PWSCF        :  39m 0.47s CPU  39m48.88s WALL


   This run was terminated on:  22:35:29   8Dec2021            

=------------------------------------------------------------------------------=
   JOB DONE.
=------------------------------------------------------------------------------=
