
     Program PWSCF v.6.8 starts on  8Dec2021 at 22: 7:40 

     This program is part of the open-source Quantum ESPRESSO suite
     for quantum simulation of materials; please cite
         "P. Giannozzi et al., J. Phys.:Condens. Matter 21 395502 (2009);
         "P. Giannozzi et al., J. Phys.:Condens. Matter 29 465901 (2017);
         "P. Giannozzi et al., J. Chem. Phys. 152 154105 (2020);
          URL http://www.quantum-espresso.org", 
     in publications or presentations arising from this work. More details at
     http://www.quantum-espresso.org/quote

     Parallel version (MPI), running on    32 processors

     MPI processes distributed on     1 nodes
     R & G space division:  proc/nbgrp/npool/nimage =      32
     30994 MiB available memory on the printing compute node when the environment starts

     Reading input from runc.in
Warning: card &CELL ignored
Warning: card    CELL_DYNAMICS = 'BFGS' , ignored
Warning: card    CELL_DOFREE = 'ALL', ignored
Warning: card    PRESS_CONV_THR = 0.5 , ! THIS IS THE DEFAULT ignored
Warning: card  / ignored

     Current dimensions of program PWSCF are:
     Max number of different atomic species (ntypx) = 10
     Max number of k-points (npk) =  40000
     Max angular momentum in pseudopotentials (lmaxx) =  4
     file U.pbe-spfn-rrkjus_psl.1.0.0.UPF: wavefunction(s)  5F renormalized
     Found symmetry operation: I + ( -0.5000  0.5000  0.0000)
     This is a supercell, fractional translations are disabled
     Message from routine setup:
     using ibrav=0 with symmetry is DISCOURAGED, use correct ibrav instead

     Subspace diagonalization in iterative solution of the eigenvalue problem:
     a serial algorithm will be used


     Parallelization info
     --------------------
     sticks:   dense  smooth     PW     G-vecs:    dense   smooth      PW
     Min         122      60     17                 5740     2032     305
     Max         123      61     18                 5743     2037     310
     Sum        3909    1941    553               183731    65117    9843

     Using Slab Decomposition



     bravais-lattice index     =            0
     lattice parameter (alat)  =       8.3778  a.u.
     unit-cell volume          =     588.0141 (a.u.)^3
     number of atoms/cell      =            4
     number of atomic types    =            1
     number of electrons       =        56.00
     number of Kohn-Sham states=           32
     kinetic-energy cutoff     =      87.5000  Ry
     charge density cutoff     =     700.0000  Ry
     scf convergence threshold =      1.0E-08
     mixing beta               =       0.5000
     number of iterations used =            8  plain     mixing
     Exchange-correlation= PBE
                           (   1   4   3   4   0   0   0)

     celldm(1)=   8.377785  celldm(2)=   0.000000  celldm(3)=   0.000000
     celldm(4)=   0.000000  celldm(5)=   0.000000  celldm(6)=   0.000000

     crystal axes: (cart. coord. in units of alat)
               a(1) = (   1.000000   0.000000   0.000000 )  
               a(2) = (   0.000000   1.000000   0.000000 )  
               a(3) = (   0.000000   0.000000   1.000000 )  

     reciprocal axes: (cart. coord. in units 2 pi/alat)
               b(1) = (  1.000000  0.000000  0.000000 )  
               b(2) = (  0.000000  1.000000  0.000000 )  
               b(3) = (  0.000000  0.000000  1.000000 )  


     PseudoPot. # 1 for U  read from file:
     /home/myhawary/QE/runs/pseudo/U.pbe-spfn-rrkjus_psl.1.0.0.UPF
     MD5 check sum: b50a7459bb2a1ad67e79ea3a31ec714c
     Pseudo is Ultrasoft + core correction, Zval = 14.0
     Generated using &quot;atomic&quot; code by A. Dal Corso  v.6.2.2
     Using radial grid of 1291 points,  8 beta functions with: 
                l(1) =   0
                l(2) =   0
                l(3) =   1
                l(4) =   1
                l(5) =   2
                l(6) =   2
                l(7) =   3
                l(8) =   3
     Q(r) pseudized with 0 coefficients 


     atomic species   valence    mass     pseudopotential
        U             14.00   238.00000     U ( 1.00)

     Starting magnetic structure 
     atomic species   magnetization
        U            0.100

     48 Sym. Ops., with inversion, found


                                    s                        frac. trans.

      isym =  1     identity                                     

 cryst.   s( 1) = (     1          0          0      )
                  (     0          1          0      )
                  (     0          0          1      )

 cart.    s( 1) = (  1.0000000  0.0000000  0.0000000 )
                  (  0.0000000  1.0000000  0.0000000 )
                  (  0.0000000  0.0000000  1.0000000 )


      isym =  2     180 deg rotation - cart. axis [0,0,1]        

 cryst.   s( 2) = (    -1          0          0      )
                  (     0         -1          0      )
                  (     0          0          1      )

 cart.    s( 2) = ( -1.0000000  0.0000000  0.0000000 )
                  (  0.0000000 -1.0000000  0.0000000 )
                  (  0.0000000  0.0000000  1.0000000 )


      isym =  3     180 deg rotation - cart. axis [0,1,0]        

 cryst.   s( 3) = (    -1          0          0      )
                  (     0          1          0      )
                  (     0          0         -1      )

 cart.    s( 3) = ( -1.0000000  0.0000000  0.0000000 )
                  (  0.0000000  1.0000000  0.0000000 )
                  (  0.0000000  0.0000000 -1.0000000 )


      isym =  4     180 deg rotation - cart. axis [1,0,0]        

 cryst.   s( 4) = (     1          0          0      )
                  (     0         -1          0      )
                  (     0          0         -1      )

 cart.    s( 4) = (  1.0000000  0.0000000  0.0000000 )
                  (  0.0000000 -1.0000000  0.0000000 )
                  (  0.0000000  0.0000000 -1.0000000 )


      isym =  5     180 deg rotation - cart. axis [1,1,0]        

 cryst.   s( 5) = (     0          1          0      )
                  (     1          0          0      )
                  (     0          0         -1      )

 cart.    s( 5) = (  0.0000000  0.9999999  0.0000000 )
                  (  1.0000001  0.0000000  0.0000000 )
                  (  0.0000000  0.0000000 -1.0000000 )


      isym =  6     180 deg rotation - cart. axis [1,-1,0]       

 cryst.   s( 6) = (     0         -1          0      )
                  (    -1          0          0      )
                  (     0          0         -1      )

 cart.    s( 6) = (  0.0000000 -0.9999999  0.0000000 )
                  ( -1.0000001  0.0000000  0.0000000 )
                  (  0.0000000  0.0000000 -1.0000000 )


      isym =  7      90 deg rotation - cart. axis [0,0,-1]       

 cryst.   s( 7) = (     0         -1          0      )
                  (     1          0          0      )
                  (     0          0          1      )

 cart.    s( 7) = (  0.0000000  0.9999999  0.0000000 )
                  ( -1.0000001  0.0000000  0.0000000 )
                  (  0.0000000  0.0000000  1.0000000 )


      isym =  8      90 deg rotation - cart. axis [0,0,1]        

 cryst.   s( 8) = (     0          1          0      )
                  (    -1          0          0      )
                  (     0          0          1      )

 cart.    s( 8) = (  0.0000000 -0.9999999  0.0000000 )
                  (  1.0000001  0.0000000  0.0000000 )
                  (  0.0000000  0.0000000  1.0000000 )


      isym =  9     180 deg rotation - cart. axis [1,0,1]        

 cryst.   s( 9) = (     0          0          1      )
                  (     0         -1          0      )
                  (     1          0          0      )

 cart.    s( 9) = (  0.0000000  0.0000000  0.9999999 )
                  (  0.0000000 -1.0000000  0.0000000 )
                  (  1.0000001  0.0000000  0.0000000 )


      isym = 10     180 deg rotation - cart. axis [-1,0,1]       

 cryst.   s(10) = (     0          0         -1      )
                  (     0         -1          0      )
                  (    -1          0          0      )

 cart.    s(10) = (  0.0000000  0.0000000 -0.9999999 )
                  (  0.0000000 -1.0000000  0.0000000 )
                  ( -1.0000001  0.0000000  0.0000000 )


      isym = 11      90 deg rotation - cart. axis [0,1,0]        

 cryst.   s(11) = (     0          0         -1      )
                  (     0          1          0      )
                  (     1          0          0      )

 cart.    s(11) = (  0.0000000  0.0000000  0.9999999 )
                  (  0.0000000  1.0000000  0.0000000 )
                  ( -1.0000001  0.0000000  0.0000000 )


      isym = 12      90 deg rotation - cart. axis [0,-1,0]       

 cryst.   s(12) = (     0          0          1      )
                  (     0          1          0      )
                  (    -1          0          0      )

 cart.    s(12) = (  0.0000000  0.0000000 -0.9999999 )
                  (  0.0000000  1.0000000  0.0000000 )
                  (  1.0000001  0.0000000  0.0000000 )


      isym = 13     180 deg rotation - cart. axis [0,1,1]        

 cryst.   s(13) = (    -1          0          0      )
                  (     0          0          1      )
                  (     0          1          0      )

 cart.    s(13) = ( -1.0000000  0.0000000  0.0000000 )
                  (  0.0000000  0.0000000  1.0000000 )
                  (  0.0000000  1.0000000  0.0000000 )


      isym = 14     180 deg rotation - cart. axis [0,1,-1]       

 cryst.   s(14) = (    -1          0          0      )
                  (     0          0         -1      )
                  (     0         -1          0      )

 cart.    s(14) = ( -1.0000000  0.0000000  0.0000000 )
                  (  0.0000000  0.0000000 -1.0000000 )
                  (  0.0000000 -1.0000000  0.0000000 )


      isym = 15      90 deg rotation - cart. axis [-1,0,0]       

 cryst.   s(15) = (     1          0          0      )
                  (     0          0         -1      )
                  (     0          1          0      )

 cart.    s(15) = (  1.0000000  0.0000000  0.0000000 )
                  (  0.0000000  0.0000000  1.0000000 )
                  (  0.0000000 -1.0000000  0.0000000 )


      isym = 16      90 deg rotation - cart. axis [1,0,0]        

 cryst.   s(16) = (     1          0          0      )
                  (     0          0          1      )
                  (     0         -1          0      )

 cart.    s(16) = (  1.0000000  0.0000000  0.0000000 )
                  (  0.0000000  0.0000000 -1.0000000 )
                  (  0.0000000  1.0000000  0.0000000 )


      isym = 17     120 deg rotation - cart. axis [-1,-1,-1]     

 cryst.   s(17) = (     0          0          1      )
                  (     1          0          0      )
                  (     0          1          0      )

 cart.    s(17) = (  0.0000000  0.9999999  0.0000000 )
                  (  0.0000000  0.0000000  1.0000000 )
                  (  1.0000001  0.0000000  0.0000000 )


      isym = 18     120 deg rotation - cart. axis [-1,1,1]       

 cryst.   s(18) = (     0          0         -1      )
                  (    -1          0          0      )
                  (     0          1          0      )

 cart.    s(18) = (  0.0000000 -0.9999999  0.0000000 )
                  (  0.0000000  0.0000000  1.0000000 )
                  ( -1.0000001  0.0000000  0.0000000 )


      isym = 19     120 deg rotation - cart. axis [1,1,-1]       

 cryst.   s(19) = (     0          0         -1      )
                  (     1          0          0      )
                  (     0         -1          0      )

 cart.    s(19) = (  0.0000000  0.9999999  0.0000000 )
                  (  0.0000000  0.0000000 -1.0000000 )
                  ( -1.0000001  0.0000000  0.0000000 )


      isym = 20     120 deg rotation - cart. axis [1,-1,1]       

 cryst.   s(20) = (     0          0          1      )
                  (    -1          0          0      )
                  (     0         -1          0      )

 cart.    s(20) = (  0.0000000 -0.9999999  0.0000000 )
                  (  0.0000000  0.0000000 -1.0000000 )
                  (  1.0000001  0.0000000  0.0000000 )


      isym = 21     120 deg rotation - cart. axis [1,1,1]        

 cryst.   s(21) = (     0          1          0      )
                  (     0          0          1      )
                  (     1          0          0      )

 cart.    s(21) = (  0.0000000  0.0000000  0.9999999 )
                  (  1.0000001  0.0000000  0.0000000 )
                  (  0.0000000  1.0000000  0.0000000 )


      isym = 22     120 deg rotation - cart. axis [-1,1,-1]      

 cryst.   s(22) = (     0         -1          0      )
                  (     0          0         -1      )
                  (     1          0          0      )

 cart.    s(22) = (  0.0000000  0.0000000  0.9999999 )
                  ( -1.0000001  0.0000000  0.0000000 )
                  (  0.0000000 -1.0000000  0.0000000 )


      isym = 23     120 deg rotation - cart. axis [1,-1,-1]      

 cryst.   s(23) = (     0         -1          0      )
                  (     0          0          1      )
                  (    -1          0          0      )

 cart.    s(23) = (  0.0000000  0.0000000 -0.9999999 )
                  ( -1.0000001  0.0000000  0.0000000 )
                  (  0.0000000  1.0000000  0.0000000 )


      isym = 24     120 deg rotation - cart. axis [-1,-1,1]      

 cryst.   s(24) = (     0          1          0      )
                  (     0          0         -1      )
                  (    -1          0          0      )

 cart.    s(24) = (  0.0000000  0.0000000 -0.9999999 )
                  (  1.0000001  0.0000000  0.0000000 )
                  (  0.0000000 -1.0000000  0.0000000 )


      isym = 25     inversion                                    

 cryst.   s(25) = (    -1          0          0      )
                  (     0         -1          0      )
                  (     0          0         -1      )

 cart.    s(25) = ( -1.0000000  0.0000000  0.0000000 )
                  (  0.0000000 -1.0000000  0.0000000 )
                  (  0.0000000  0.0000000 -1.0000000 )


      isym = 26     inv. 180 deg rotation - cart. axis [0,0,1]   

 cryst.   s(26) = (     1          0          0      )
                  (     0          1          0      )
                  (     0          0         -1      )

 cart.    s(26) = (  1.0000000  0.0000000  0.0000000 )
                  (  0.0000000  1.0000000  0.0000000 )
                  (  0.0000000  0.0000000 -1.0000000 )


      isym = 27     inv. 180 deg rotation - cart. axis [0,1,0]   

 cryst.   s(27) = (     1          0          0      )
                  (     0         -1          0      )
                  (     0          0          1      )

 cart.    s(27) = (  1.0000000  0.0000000  0.0000000 )
                  (  0.0000000 -1.0000000  0.0000000 )
                  (  0.0000000  0.0000000  1.0000000 )


      isym = 28     inv. 180 deg rotation - cart. axis [1,0,0]   

 cryst.   s(28) = (    -1          0          0      )
                  (     0          1          0      )
                  (     0          0          1      )

 cart.    s(28) = ( -1.0000000  0.0000000  0.0000000 )
                  (  0.0000000  1.0000000  0.0000000 )
                  (  0.0000000  0.0000000  1.0000000 )


      isym = 29     inv. 180 deg rotation - cart. axis [1,1,0]   

 cryst.   s(29) = (     0         -1          0      )
                  (    -1          0          0      )
                  (     0          0          1      )

 cart.    s(29) = (  0.0000000 -0.9999999  0.0000000 )
                  ( -1.0000001  0.0000000  0.0000000 )
                  (  0.0000000  0.0000000  1.0000000 )


      isym = 30     inv. 180 deg rotation - cart. axis [1,-1,0]  

 cryst.   s(30) = (     0          1          0      )
                  (     1          0          0      )
                  (     0          0          1      )

 cart.    s(30) = (  0.0000000  0.9999999  0.0000000 )
                  (  1.0000001  0.0000000  0.0000000 )
                  (  0.0000000  0.0000000  1.0000000 )


      isym = 31     inv.  90 deg rotation - cart. axis [0,0,-1]  

 cryst.   s(31) = (     0          1          0      )
                  (    -1          0          0      )
                  (     0          0         -1      )

 cart.    s(31) = (  0.0000000 -0.9999999  0.0000000 )
                  (  1.0000001  0.0000000  0.0000000 )
                  (  0.0000000  0.0000000 -1.0000000 )


      isym = 32     inv.  90 deg rotation - cart. axis [0,0,1]   

 cryst.   s(32) = (     0         -1          0      )
                  (     1          0          0      )
                  (     0          0         -1      )

 cart.    s(32) = (  0.0000000  0.9999999  0.0000000 )
                  ( -1.0000001  0.0000000  0.0000000 )
                  (  0.0000000  0.0000000 -1.0000000 )


      isym = 33     inv. 180 deg rotation - cart. axis [1,0,1]   

 cryst.   s(33) = (     0          0         -1      )
                  (     0          1          0      )
                  (    -1          0          0      )

 cart.    s(33) = (  0.0000000  0.0000000 -0.9999999 )
                  (  0.0000000  1.0000000  0.0000000 )
                  ( -1.0000001  0.0000000  0.0000000 )


      isym = 34     inv. 180 deg rotation - cart. axis [-1,0,1]  

 cryst.   s(34) = (     0          0          1      )
                  (     0          1          0      )
                  (     1          0          0      )

 cart.    s(34) = (  0.0000000  0.0000000  0.9999999 )
                  (  0.0000000  1.0000000  0.0000000 )
                  (  1.0000001  0.0000000  0.0000000 )


      isym = 35     inv.  90 deg rotation - cart. axis [0,1,0]   

 cryst.   s(35) = (     0          0          1      )
                  (     0         -1          0      )
                  (    -1          0          0      )

 cart.    s(35) = (  0.0000000  0.0000000 -0.9999999 )
                  (  0.0000000 -1.0000000  0.0000000 )
                  (  1.0000001  0.0000000  0.0000000 )


      isym = 36     inv.  90 deg rotation - cart. axis [0,-1,0]  

 cryst.   s(36) = (     0          0         -1      )
                  (     0         -1          0      )
                  (     1          0          0      )

 cart.    s(36) = (  0.0000000  0.0000000  0.9999999 )
                  (  0.0000000 -1.0000000  0.0000000 )
                  ( -1.0000001  0.0000000  0.0000000 )


      isym = 37     inv. 180 deg rotation - cart. axis [0,1,1]   

 cryst.   s(37) = (     1          0          0      )
                  (     0          0         -1      )
                  (     0         -1          0      )

 cart.    s(37) = (  1.0000000  0.0000000  0.0000000 )
                  (  0.0000000  0.0000000 -1.0000000 )
                  (  0.0000000 -1.0000000  0.0000000 )


      isym = 38     inv. 180 deg rotation - cart. axis [0,1,-1]  

 cryst.   s(38) = (     1          0          0      )
                  (     0          0          1      )
                  (     0          1          0      )

 cart.    s(38) = (  1.0000000  0.0000000  0.0000000 )
                  (  0.0000000  0.0000000  1.0000000 )
                  (  0.0000000  1.0000000  0.0000000 )


      isym = 39     inv.  90 deg rotation - cart. axis [-1,0,0]  

 cryst.   s(39) = (    -1          0          0      )
                  (     0          0          1      )
                  (     0         -1          0      )

 cart.    s(39) = ( -1.0000000  0.0000000  0.0000000 )
                  (  0.0000000  0.0000000 -1.0000000 )
                  (  0.0000000  1.0000000  0.0000000 )


      isym = 40     inv.  90 deg rotation - cart. axis [1,0,0]   

 cryst.   s(40) = (    -1          0          0      )
                  (     0          0         -1      )
                  (     0          1          0      )

 cart.    s(40) = ( -1.0000000  0.0000000  0.0000000 )
                  (  0.0000000  0.0000000  1.0000000 )
                  (  0.0000000 -1.0000000  0.0000000 )


      isym = 41     inv. 120 deg rotation - cart. axis [-1,-1,-1]

 cryst.   s(41) = (     0          0         -1      )
                  (    -1          0          0      )
                  (     0         -1          0      )

 cart.    s(41) = (  0.0000000 -0.9999999  0.0000000 )
                  (  0.0000000  0.0000000 -1.0000000 )
                  ( -1.0000001  0.0000000  0.0000000 )


      isym = 42     inv. 120 deg rotation - cart. axis [-1,1,1]  

 cryst.   s(42) = (     0          0          1      )
                  (     1          0          0      )
                  (     0         -1          0      )

 cart.    s(42) = (  0.0000000  0.9999999  0.0000000 )
                  (  0.0000000  0.0000000 -1.0000000 )
                  (  1.0000001  0.0000000  0.0000000 )


      isym = 43     inv. 120 deg rotation - cart. axis [1,1,-1]  

 cryst.   s(43) = (     0          0          1      )
                  (    -1          0          0      )
                  (     0          1          0      )

 cart.    s(43) = (  0.0000000 -0.9999999  0.0000000 )
                  (  0.0000000  0.0000000  1.0000000 )
                  (  1.0000001  0.0000000  0.0000000 )


      isym = 44     inv. 120 deg rotation - cart. axis [1,-1,1]  

 cryst.   s(44) = (     0          0         -1      )
                  (     1          0          0      )
                  (     0          1          0      )

 cart.    s(44) = (  0.0000000  0.9999999  0.0000000 )
                  (  0.0000000  0.0000000  1.0000000 )
                  ( -1.0000001  0.0000000  0.0000000 )


      isym = 45     inv. 120 deg rotation - cart. axis [1,1,1]   

 cryst.   s(45) = (     0         -1          0      )
                  (     0          0         -1      )
                  (    -1          0          0      )

 cart.    s(45) = (  0.0000000  0.0000000 -0.9999999 )
                  ( -1.0000001  0.0000000  0.0000000 )
                  (  0.0000000 -1.0000000  0.0000000 )


      isym = 46     inv. 120 deg rotation - cart. axis [-1,1,-1] 

 cryst.   s(46) = (     0          1          0      )
                  (     0          0          1      )
                  (    -1          0          0      )

 cart.    s(46) = (  0.0000000  0.0000000 -0.9999999 )
                  (  1.0000001  0.0000000  0.0000000 )
                  (  0.0000000  1.0000000  0.0000000 )


      isym = 47     inv. 120 deg rotation - cart. axis [1,-1,-1] 

 cryst.   s(47) = (     0          1          0      )
                  (     0          0         -1      )
                  (     1          0          0      )

 cart.    s(47) = (  0.0000000  0.0000000  0.9999999 )
                  (  1.0000001  0.0000000  0.0000000 )
                  (  0.0000000 -1.0000000  0.0000000 )


      isym = 48     inv. 120 deg rotation - cart. axis [-1,-1,1] 

 cryst.   s(48) = (     0         -1          0      )
                  (     0          0          1      )
                  (     1          0          0      )

 cart.    s(48) = (  0.0000000  0.0000000  0.9999999 )
                  ( -1.0000001  0.0000000  0.0000000 )
                  (  0.0000000  1.0000000  0.0000000 )


   Cartesian axes

     site n.     atom                  positions (alat units)
         1           U   tau(   1) = (   0.0000000   0.0000000   0.0000000  )
         2           U   tau(   2) = (   0.5000000   0.5000000   0.0000000  )
         3           U   tau(   3) = (   0.5000000   0.0000000   0.5000000  )
         4           U   tau(   4) = (   0.0000000   0.5000000   0.5000000  )

   Crystallographic axes

     site n.     atom                  positions (cryst. coord.)
         1           U   tau(   1) = (  0.0000000  0.0000000  0.0000000  )
         2           U   tau(   2) = (  0.5000000  0.5000000  0.0000000  )
         3           U   tau(   3) = (  0.5000000  0.0000000  0.5000000  )
         4           U   tau(   4) = (  0.0000000  0.5000000  0.5000000  )

     number of k points=    20  Marzari-Vanderbilt smearing, width (Ry)=  0.0500
                       cart. coord. in units 2pi/alat
        k(    1) = (   0.0000000   0.0000000   0.0000000), wk =   0.0046296
        k(    2) = (   0.0000000   0.0000000   0.1666667), wk =   0.0277778
        k(    3) = (   0.0000000   0.0000000   0.3333333), wk =   0.0277778
        k(    4) = (   0.0000000   0.0000000  -0.5000000), wk =   0.0138889
        k(    5) = (   0.0000000   0.1666667   0.1666667), wk =   0.0555556
        k(    6) = (   0.0000000   0.1666667   0.3333333), wk =   0.1111111
        k(    7) = (   0.0000000   0.1666667  -0.5000000), wk =   0.0555556
        k(    8) = (   0.0000000   0.3333333   0.3333333), wk =   0.0555556
        k(    9) = (   0.0000000   0.3333333  -0.5000000), wk =   0.0555556
        k(   10) = (   0.0000000  -0.5000000  -0.5000000), wk =   0.0138889
        k(   11) = (   0.1666667   0.1666667   0.1666667), wk =   0.0370370
        k(   12) = (   0.1666667   0.1666667   0.3333333), wk =   0.1111111
        k(   13) = (   0.1666667   0.1666667  -0.5000000), wk =   0.0555556
        k(   14) = (   0.1666667   0.3333333   0.3333333), wk =   0.1111111
        k(   15) = (   0.1666667   0.3333333  -0.5000000), wk =   0.1111111
        k(   16) = (   0.1666667  -0.5000000  -0.5000000), wk =   0.0277778
        k(   17) = (   0.3333333   0.3333333   0.3333333), wk =   0.0370370
        k(   18) = (   0.3333333   0.3333333  -0.5000000), wk =   0.0555556
        k(   19) = (   0.3333333  -0.5000000  -0.5000000), wk =   0.0277778
        k(   20) = (  -0.5000000  -0.5000000  -0.5000000), wk =   0.0046296

                       cryst. coord.
        k(    1) = (   0.0000000   0.0000000   0.0000000), wk =   0.0046296
        k(    2) = (   0.0000000   0.0000000   0.1666667), wk =   0.0277778
        k(    3) = (   0.0000000   0.0000000   0.3333333), wk =   0.0277778
        k(    4) = (   0.0000000   0.0000000  -0.5000000), wk =   0.0138889
        k(    5) = (   0.0000000   0.1666667   0.1666667), wk =   0.0555556
        k(    6) = (   0.0000000   0.1666667   0.3333333), wk =   0.1111111
        k(    7) = (   0.0000000   0.1666667  -0.5000000), wk =   0.0555556
        k(    8) = (   0.0000000   0.3333333   0.3333333), wk =   0.0555556
        k(    9) = (   0.0000000   0.3333333  -0.5000000), wk =   0.0555556
        k(   10) = (   0.0000000  -0.5000000  -0.5000000), wk =   0.0138889
        k(   11) = (   0.1666667   0.1666667   0.1666667), wk =   0.0370370
        k(   12) = (   0.1666667   0.1666667   0.3333333), wk =   0.1111111
        k(   13) = (   0.1666667   0.1666667  -0.5000000), wk =   0.0555556
        k(   14) = (   0.1666667   0.3333333   0.3333333), wk =   0.1111111
        k(   15) = (   0.1666667   0.3333333  -0.5000000), wk =   0.1111111
        k(   16) = (   0.1666667  -0.5000000  -0.5000000), wk =   0.0277778
        k(   17) = (   0.3333333   0.3333333   0.3333333), wk =   0.0370370
        k(   18) = (   0.3333333   0.3333333  -0.5000000), wk =   0.0555556
        k(   19) = (   0.3333333  -0.5000000  -0.5000000), wk =   0.0277778
        k(   20) = (  -0.5000000  -0.5000000  -0.5000000), wk =   0.0046296

     Dense  grid:   183731 G-vectors     FFT dimensions: (  72,  72,  72)

     Smooth grid:    65117 G-vectors     FFT dimensions: (  50,  50,  50)

     Dynamical RAM for                 wfc:       0.12 MB

     Dynamical RAM for     wfc (w. buffer):       5.06 MB

     Dynamical RAM for           str. fact:       0.09 MB

     Dynamical RAM for           local pot:       0.00 MB

     Dynamical RAM for          nlocal pot:       0.49 MB

     Dynamical RAM for                qrad:       5.09 MB

     Dynamical RAM for          rho,v,vnew:       1.24 MB

     Dynamical RAM for               rhoin:       0.41 MB

     Dynamical RAM for            rho*nmix:       2.80 MB

     Dynamical RAM for           G-vectors:       0.34 MB

     Dynamical RAM for          h,s,v(r/c):       0.19 MB

     Dynamical RAM for          <psi|beta>:       0.06 MB

     Dynamical RAM for                 psi:       0.25 MB

     Dynamical RAM for                hpsi:       0.25 MB

     Dynamical RAM for                spsi:       0.25 MB

     Dynamical RAM for      wfcinit/wfcrot:       0.27 MB

     Dynamical RAM for           addusdens:      49.06 MB

     Dynamical RAM for          addusforce:      49.69 MB

     Dynamical RAM for         addusstress:      51.12 MB

     Estimated static dynamical RAM per process >      13.62 MB

     Estimated max dynamical RAM per process >      67.55 MB

     Estimated total dynamical RAM >       2.11 GB
     Generating pointlists ...
     new r_m :   0.2917 (alat units)  2.4436 (a.u.) for type    1

     Initial potential from superposition of free atoms

     starting charge   55.98204, renormalised to   56.00000
     Starting wfcs are random

     total cpu time spent up to now is        3.2 secs

     Self-consistent Calculation

     iteration #  1     ecut=    87.50 Ry     beta= 0.50
     Davidson diagonalization with overlap

---- Real-time Memory Report at c_bands before calling an iterative solver
            82 MiB given to the printing process from OS
             0 MiB allocation reported by mallinfo(arena+hblkhd)
         30238 MiB available memory on the node where the printing process lives
------------------
     ethr =  1.00E-02,  avg # of iterations = 11.3

     total cpu time spent up to now is       17.6 secs

     total energy              =    -516.17628000 Ry
     estimated scf accuracy    <       1.77926488 Ry

     total magnetization       =     2.32 Bohr mag/cell
     absolute magnetization    =     2.32 Bohr mag/cell

     iteration #  2     ecut=    87.50 Ry     beta= 0.50
     Davidson diagonalization with overlap

---- Real-time Memory Report at c_bands before calling an iterative solver
            90 MiB given to the printing process from OS
             0 MiB allocation reported by mallinfo(arena+hblkhd)
         30092 MiB available memory on the node where the printing process lives
------------------
     ethr =  3.18E-03,  avg # of iterations =  6.8

     total cpu time spent up to now is       26.8 secs

     total energy              =    -517.14870661 Ry
     estimated scf accuracy    <       1.55066276 Ry

     total magnetization       =     2.68 Bohr mag/cell
     absolute magnetization    =     2.68 Bohr mag/cell

     iteration #  3     ecut=    87.50 Ry     beta= 0.50
     Davidson diagonalization with overlap

---- Real-time Memory Report at c_bands before calling an iterative solver
            90 MiB given to the printing process from OS
             0 MiB allocation reported by mallinfo(arena+hblkhd)
         30083 MiB available memory on the node where the printing process lives
------------------
     ethr =  2.77E-03,  avg # of iterations =  2.0

     total cpu time spent up to now is       31.9 secs

     total energy              =    -517.30005263 Ry
     estimated scf accuracy    <       0.13215944 Ry

     total magnetization       =     1.97 Bohr mag/cell
     absolute magnetization    =     1.98 Bohr mag/cell

     iteration #  4     ecut=    87.50 Ry     beta= 0.50
     Davidson diagonalization with overlap

---- Real-time Memory Report at c_bands before calling an iterative solver
            91 MiB given to the printing process from OS
             0 MiB allocation reported by mallinfo(arena+hblkhd)
         30084 MiB available memory on the node where the printing process lives
------------------
     c_bands:  1 eigenvalues not converged
     c_bands:  2 eigenvalues not converged
     c_bands:  2 eigenvalues not converged
     c_bands:  2 eigenvalues not converged
     c_bands:  1 eigenvalues not converged
     c_bands:  4 eigenvalues not converged
     c_bands:  3 eigenvalues not converged
     c_bands:  2 eigenvalues not converged
     c_bands:  4 eigenvalues not converged
     c_bands:  3 eigenvalues not converged
     c_bands:  3 eigenvalues not converged
     c_bands:  2 eigenvalues not converged
     c_bands:  3 eigenvalues not converged
     c_bands:  3 eigenvalues not converged
     c_bands:  1 eigenvalues not converged
     c_bands:  1 eigenvalues not converged
     c_bands:  1 eigenvalues not converged
     c_bands:  3 eigenvalues not converged
     c_bands:  2 eigenvalues not converged
     c_bands:  2 eigenvalues not converged
     c_bands:  3 eigenvalues not converged
     c_bands:  4 eigenvalues not converged
     c_bands:  2 eigenvalues not converged
     c_bands:  1 eigenvalues not converged
     ethr =  2.36E-04,  avg # of iterations = 18.7

     total cpu time spent up to now is       45.0 secs

     total energy              =    -517.45712534 Ry
     estimated scf accuracy    <       0.10221114 Ry

     total magnetization       =     1.92 Bohr mag/cell
     absolute magnetization    =     1.93 Bohr mag/cell

     iteration #  5     ecut=    87.50 Ry     beta= 0.50
     Davidson diagonalization with overlap

---- Real-time Memory Report at c_bands before calling an iterative solver
            91 MiB given to the printing process from OS
             0 MiB allocation reported by mallinfo(arena+hblkhd)
         30087 MiB available memory on the node where the printing process lives
------------------
     c_bands:  2 eigenvalues not converged
     c_bands:  2 eigenvalues not converged
     c_bands:  3 eigenvalues not converged
     c_bands:  1 eigenvalues not converged
     c_bands:  2 eigenvalues not converged
     c_bands:  2 eigenvalues not converged
     c_bands:  2 eigenvalues not converged
     c_bands:  1 eigenvalues not converged
     c_bands:  1 eigenvalues not converged
     c_bands:  4 eigenvalues not converged
     ethr =  1.83E-04,  avg # of iterations =  9.8

     total cpu time spent up to now is       51.7 secs

     total energy              =    -517.45937931 Ry
     estimated scf accuracy    <       0.01855334 Ry

     total magnetization       =     1.89 Bohr mag/cell
     absolute magnetization    =     1.89 Bohr mag/cell

     iteration #  6     ecut=    87.50 Ry     beta= 0.50
     Davidson diagonalization with overlap

---- Real-time Memory Report at c_bands before calling an iterative solver
            92 MiB given to the printing process from OS
             0 MiB allocation reported by mallinfo(arena+hblkhd)
         30084 MiB available memory on the node where the printing process lives
------------------
     c_bands:  2 eigenvalues not converged
     c_bands:  3 eigenvalues not converged
     c_bands:  1 eigenvalues not converged
     c_bands:  2 eigenvalues not converged
     c_bands:  4 eigenvalues not converged
     c_bands:  1 eigenvalues not converged
     c_bands:  2 eigenvalues not converged
     c_bands:  1 eigenvalues not converged
     c_bands:  2 eigenvalues not converged
     c_bands:  2 eigenvalues not converged
     c_bands:  2 eigenvalues not converged
     c_bands:  2 eigenvalues not converged
     c_bands:  1 eigenvalues not converged
     c_bands:  4 eigenvalues not converged
     c_bands:  5 eigenvalues not converged
     c_bands:  2 eigenvalues not converged
     c_bands:  5 eigenvalues not converged
     c_bands:  2 eigenvalues not converged
     c_bands:  1 eigenvalues not converged
     c_bands:  1 eigenvalues not converged
     c_bands:  2 eigenvalues not converged
     c_bands:  2 eigenvalues not converged
     c_bands:  2 eigenvalues not converged
     c_bands:  3 eigenvalues not converged
     c_bands:  2 eigenvalues not converged
     c_bands:  1 eigenvalues not converged
     c_bands:  2 eigenvalues not converged
     c_bands:  2 eigenvalues not converged
     c_bands:  1 eigenvalues not converged
     c_bands:  3 eigenvalues not converged
     c_bands:  4 eigenvalues not converged
     c_bands:  3 eigenvalues not converged
     c_bands:  5 eigenvalues not converged
     c_bands:  5 eigenvalues not converged
     ethr =  3.31E-05,  avg # of iterations = 20.9

     total cpu time spent up to now is       66.8 secs

     total energy              =    -517.47588930 Ry
     estimated scf accuracy    <       0.15118413 Ry

     total magnetization       =     1.78 Bohr mag/cell
     absolute magnetization    =     1.80 Bohr mag/cell

     iteration #  7     ecut=    87.50 Ry     beta= 0.50
     Davidson diagonalization with overlap

---- Real-time Memory Report at c_bands before calling an iterative solver
            92 MiB given to the printing process from OS
             0 MiB allocation reported by mallinfo(arena+hblkhd)
         30083 MiB available memory on the node where the printing process lives
------------------
     c_bands:  1 eigenvalues not converged
     c_bands:  1 eigenvalues not converged
     c_bands:  1 eigenvalues not converged
     c_bands:  2 eigenvalues not converged
     c_bands:  1 eigenvalues not converged
     c_bands:  3 eigenvalues not converged
     c_bands:  1 eigenvalues not converged
     c_bands:  1 eigenvalues not converged
     c_bands:  1 eigenvalues not converged
     c_bands:  2 eigenvalues not converged
     c_bands:  2 eigenvalues not converged
     c_bands:  3 eigenvalues not converged
     c_bands:  2 eigenvalues not converged
     c_bands:  1 eigenvalues not converged
     ethr =  3.31E-05,  avg # of iterations = 15.1

     total cpu time spent up to now is       75.5 secs

     total energy              =    -517.47748319 Ry
     estimated scf accuracy    <       0.01881451 Ry

     total magnetization       =     1.73 Bohr mag/cell
     absolute magnetization    =     1.75 Bohr mag/cell

     iteration #  8     ecut=    87.50 Ry     beta= 0.50
     Davidson diagonalization with overlap

---- Real-time Memory Report at c_bands before calling an iterative solver
            93 MiB given to the printing process from OS
             0 MiB allocation reported by mallinfo(arena+hblkhd)
         30083 MiB available memory on the node where the printing process lives
------------------
     c_bands:  1 eigenvalues not converged
     c_bands:  4 eigenvalues not converged
     c_bands:  2 eigenvalues not converged
     c_bands:  1 eigenvalues not converged
     c_bands:  1 eigenvalues not converged
     ethr =  3.31E-05,  avg # of iterations = 11.8

     total cpu time spent up to now is       84.0 secs

     total energy              =    -517.48209283 Ry
     estimated scf accuracy    <       0.05010126 Ry

     total magnetization       =     1.58 Bohr mag/cell
     absolute magnetization    =     1.61 Bohr mag/cell

     iteration #  9     ecut=    87.50 Ry     beta= 0.50
     Davidson diagonalization with overlap

---- Real-time Memory Report at c_bands before calling an iterative solver
            93 MiB given to the printing process from OS
             0 MiB allocation reported by mallinfo(arena+hblkhd)
         30078 MiB available memory on the node where the printing process lives
------------------
     ethr =  3.31E-05,  avg # of iterations =  2.5

     total cpu time spent up to now is       88.8 secs

     total energy              =    -517.48182895 Ry
     estimated scf accuracy    <       0.01521356 Ry

     total magnetization       =     1.53 Bohr mag/cell
     absolute magnetization    =     1.56 Bohr mag/cell

     iteration # 10     ecut=    87.50 Ry     beta= 0.50
     Davidson diagonalization with overlap

---- Real-time Memory Report at c_bands before calling an iterative solver
            93 MiB given to the printing process from OS
             0 MiB allocation reported by mallinfo(arena+hblkhd)
         30076 MiB available memory on the node where the printing process lives
------------------
     c_bands:  2 eigenvalues not converged
     ethr =  2.72E-05,  avg # of iterations =  6.6

     total cpu time spent up to now is       94.4 secs

     total energy              =    -517.48289308 Ry
     estimated scf accuracy    <       0.00069458 Ry

     total magnetization       =     1.51 Bohr mag/cell
     absolute magnetization    =     1.53 Bohr mag/cell

     iteration # 11     ecut=    87.50 Ry     beta= 0.50
     Davidson diagonalization with overlap

---- Real-time Memory Report at c_bands before calling an iterative solver
            93 MiB given to the printing process from OS
             0 MiB allocation reported by mallinfo(arena+hblkhd)
         30076 MiB available memory on the node where the printing process lives
------------------
     c_bands:  3 eigenvalues not converged
     c_bands:  2 eigenvalues not converged
     c_bands:  1 eigenvalues not converged
     c_bands:  2 eigenvalues not converged
     c_bands:  3 eigenvalues not converged
     c_bands:  3 eigenvalues not converged
     c_bands:  2 eigenvalues not converged
     c_bands:  5 eigenvalues not converged
     c_bands:  4 eigenvalues not converged
     c_bands:  3 eigenvalues not converged
     c_bands:  3 eigenvalues not converged
     c_bands:  1 eigenvalues not converged
     c_bands:  4 eigenvalues not converged
     c_bands:  3 eigenvalues not converged
     c_bands:  1 eigenvalues not converged
     c_bands:  1 eigenvalues not converged
     c_bands:  3 eigenvalues not converged
     c_bands:  3 eigenvalues not converged
     c_bands:  2 eigenvalues not converged
     c_bands:  3 eigenvalues not converged
     c_bands:  2 eigenvalues not converged
     c_bands:  2 eigenvalues not converged
     c_bands:  1 eigenvalues not converged
     c_bands:  4 eigenvalues not converged
     c_bands:  2 eigenvalues not converged
     c_bands:  4 eigenvalues not converged
     c_bands:  2 eigenvalues not converged
     c_bands:  1 eigenvalues not converged
     c_bands:  4 eigenvalues not converged
     c_bands:  4 eigenvalues not converged
     c_bands:  2 eigenvalues not converged
     c_bands:  2 eigenvalues not converged
     c_bands:  3 eigenvalues not converged
     ethr =  1.24E-06,  avg # of iterations = 19.1

     total cpu time spent up to now is      108.0 secs

     total energy              =    -517.48405020 Ry
     estimated scf accuracy    <       0.01298887 Ry

     total magnetization       =     1.43 Bohr mag/cell
     absolute magnetization    =     1.46 Bohr mag/cell

     iteration # 12     ecut=    87.50 Ry     beta= 0.50
     Davidson diagonalization with overlap

---- Real-time Memory Report at c_bands before calling an iterative solver
            94 MiB given to the printing process from OS
             0 MiB allocation reported by mallinfo(arena+hblkhd)
         30075 MiB available memory on the node where the printing process lives
------------------
     c_bands:  1 eigenvalues not converged
     c_bands:  1 eigenvalues not converged
     c_bands:  2 eigenvalues not converged
     c_bands:  4 eigenvalues not converged
     c_bands:  2 eigenvalues not converged
     c_bands:  2 eigenvalues not converged
     c_bands:  1 eigenvalues not converged
     c_bands:  2 eigenvalues not converged
     c_bands:  1 eigenvalues not converged
     c_bands:  4 eigenvalues not converged
     c_bands:  1 eigenvalues not converged
     c_bands:  2 eigenvalues not converged
     c_bands:  3 eigenvalues not converged
     ethr =  1.24E-06,  avg # of iterations = 13.2

     total cpu time spent up to now is      116.2 secs

     total energy              =    -517.48399905 Ry
     estimated scf accuracy    <       0.00357579 Ry

     total magnetization       =     1.43 Bohr mag/cell
     absolute magnetization    =     1.45 Bohr mag/cell

     iteration # 13     ecut=    87.50 Ry     beta= 0.50
     Davidson diagonalization with overlap

---- Real-time Memory Report at c_bands before calling an iterative solver
            94 MiB given to the printing process from OS
             0 MiB allocation reported by mallinfo(arena+hblkhd)
         30075 MiB available memory on the node where the printing process lives
------------------
     c_bands:  2 eigenvalues not converged
     c_bands:  1 eigenvalues not converged
     c_bands:  1 eigenvalues not converged
     c_bands:  2 eigenvalues not converged
     c_bands:  2 eigenvalues not converged
     c_bands:  3 eigenvalues not converged
     c_bands:  1 eigenvalues not converged
     c_bands:  1 eigenvalues not converged
     c_bands:  1 eigenvalues not converged
     c_bands:  1 eigenvalues not converged
     c_bands:  2 eigenvalues not converged
     c_bands:  1 eigenvalues not converged
     c_bands:  1 eigenvalues not converged
     c_bands:  1 eigenvalues not converged
     c_bands:  3 eigenvalues not converged
     ethr =  1.24E-06,  avg # of iterations = 14.2

     total cpu time spent up to now is      125.8 secs

     total energy              =    -517.48431639 Ry
     estimated scf accuracy    <       0.00089711 Ry

     total magnetization       =     1.41 Bohr mag/cell
     absolute magnetization    =     1.44 Bohr mag/cell

     iteration # 14     ecut=    87.50 Ry     beta= 0.50
     Davidson diagonalization with overlap

---- Real-time Memory Report at c_bands before calling an iterative solver
            94 MiB given to the printing process from OS
             0 MiB allocation reported by mallinfo(arena+hblkhd)
         30074 MiB available memory on the node where the printing process lives
------------------
     c_bands:  1 eigenvalues not converged
     c_bands:  1 eigenvalues not converged
     c_bands:  2 eigenvalues not converged
     c_bands:  1 eigenvalues not converged
     c_bands:  2 eigenvalues not converged
     c_bands:  3 eigenvalues not converged
     c_bands:  3 eigenvalues not converged
     c_bands:  2 eigenvalues not converged
     c_bands:  2 eigenvalues not converged
     ethr =  1.24E-06,  avg # of iterations =  6.6

     total cpu time spent up to now is      131.4 secs

     total energy              =    -517.48444869 Ry
     estimated scf accuracy    <       0.00006471 Ry

     total magnetization       =     1.35 Bohr mag/cell
     absolute magnetization    =     1.38 Bohr mag/cell

     iteration # 15     ecut=    87.50 Ry     beta= 0.50
     Davidson diagonalization with overlap

---- Real-time Memory Report at c_bands before calling an iterative solver
            94 MiB given to the printing process from OS
             0 MiB allocation reported by mallinfo(arena+hblkhd)
         30075 MiB available memory on the node where the printing process lives
------------------
     c_bands:  5 eigenvalues not converged
     c_bands:  4 eigenvalues not converged
     c_bands:  3 eigenvalues not converged
     c_bands:  5 eigenvalues not converged
     c_bands:  3 eigenvalues not converged
     c_bands:  2 eigenvalues not converged
     c_bands:  4 eigenvalues not converged
     c_bands:  4 eigenvalues not converged
     c_bands:  3 eigenvalues not converged
     c_bands:  2 eigenvalues not converged
     c_bands:  3 eigenvalues not converged
     c_bands:  1 eigenvalues not converged
     c_bands:  5 eigenvalues not converged
     c_bands:  3 eigenvalues not converged
     c_bands:  1 eigenvalues not converged
     c_bands:  2 eigenvalues not converged
     c_bands:  4 eigenvalues not converged
     c_bands:  3 eigenvalues not converged
     c_bands:  2 eigenvalues not converged
     c_bands:  4 eigenvalues not converged
     c_bands:  4 eigenvalues not converged
     c_bands:  4 eigenvalues not converged
     c_bands:  3 eigenvalues not converged
     c_bands:  3 eigenvalues not converged
     c_bands:  4 eigenvalues not converged
     c_bands:  1 eigenvalues not converged
     c_bands:  4 eigenvalues not converged
     c_bands:  1 eigenvalues not converged
     ethr =  1.16E-07,  avg # of iterations = 18.6

     total cpu time spent up to now is      145.2 secs

     total energy              =    -517.48462429 Ry
     estimated scf accuracy    <       0.00284452 Ry

     total magnetization       =     1.31 Bohr mag/cell
     absolute magnetization    =     1.34 Bohr mag/cell

     iteration # 16     ecut=    87.50 Ry     beta= 0.50
     Davidson diagonalization with overlap

---- Real-time Memory Report at c_bands before calling an iterative solver
            94 MiB given to the printing process from OS
             0 MiB allocation reported by mallinfo(arena+hblkhd)
         30064 MiB available memory on the node where the printing process lives
------------------
     c_bands:  1 eigenvalues not converged
     c_bands:  2 eigenvalues not converged
     c_bands:  3 eigenvalues not converged
     c_bands:  4 eigenvalues not converged
     c_bands:  1 eigenvalues not converged
     c_bands:  1 eigenvalues not converged
     c_bands:  1 eigenvalues not converged
     c_bands:  1 eigenvalues not converged
     c_bands:  2 eigenvalues not converged
     c_bands:  1 eigenvalues not converged
     c_bands:  4 eigenvalues not converged
     c_bands:  3 eigenvalues not converged
     c_bands:  2 eigenvalues not converged
     c_bands:  1 eigenvalues not converged
     ethr =  1.16E-07,  avg # of iterations =  9.3

     total cpu time spent up to now is      151.6 secs

     total energy              =    -517.48461039 Ry
     estimated scf accuracy    <       0.00287445 Ry

     total magnetization       =     1.34 Bohr mag/cell
     absolute magnetization    =     1.37 Bohr mag/cell

     iteration # 17     ecut=    87.50 Ry     beta= 0.50
     Davidson diagonalization with overlap

---- Real-time Memory Report at c_bands before calling an iterative solver
            94 MiB given to the printing process from OS
             0 MiB allocation reported by mallinfo(arena+hblkhd)
         30067 MiB available memory on the node where the printing process lives
------------------
     c_bands:  1 eigenvalues not converged
     c_bands:  2 eigenvalues not converged
     c_bands:  3 eigenvalues not converged
     c_bands:  4 eigenvalues not converged
     c_bands:  1 eigenvalues not converged
     c_bands:  1 eigenvalues not converged
     c_bands:  1 eigenvalues not converged
     c_bands:  1 eigenvalues not converged
     c_bands:  2 eigenvalues not converged
     c_bands:  1 eigenvalues not converged
     c_bands:  4 eigenvalues not converged
     c_bands:  3 eigenvalues not converged
     c_bands:  2 eigenvalues not converged
     c_bands:  1 eigenvalues not converged
     ethr =  1.16E-07,  avg # of iterations = 10.3

     total cpu time spent up to now is      158.6 secs

     total energy              =    -517.48415520 Ry
     estimated scf accuracy    <       0.00198143 Ry

     total magnetization       =     1.27 Bohr mag/cell
     absolute magnetization    =     1.30 Bohr mag/cell

     iteration # 18     ecut=    87.50 Ry     beta= 0.50
     Davidson diagonalization with overlap

---- Real-time Memory Report at c_bands before calling an iterative solver
            94 MiB given to the printing process from OS
             0 MiB allocation reported by mallinfo(arena+hblkhd)
         30069 MiB available memory on the node where the printing process lives
------------------
     c_bands:  5 eigenvalues not converged
     c_bands:  2 eigenvalues not converged
     c_bands:  4 eigenvalues not converged
     c_bands:  2 eigenvalues not converged
     c_bands:  4 eigenvalues not converged
     c_bands:  2 eigenvalues not converged
     c_bands:  4 eigenvalues not converged
     c_bands:  4 eigenvalues not converged
     c_bands:  2 eigenvalues not converged
     c_bands:  4 eigenvalues not converged
     c_bands:  1 eigenvalues not converged
     c_bands:  4 eigenvalues not converged
     c_bands:  3 eigenvalues not converged
     c_bands:  5 eigenvalues not converged
     c_bands:  3 eigenvalues not converged
     c_bands:  1 eigenvalues not converged
     c_bands:  1 eigenvalues not converged
     c_bands:  1 eigenvalues not converged
     c_bands:  1 eigenvalues not converged
     c_bands:  1 eigenvalues not converged
     c_bands:  1 eigenvalues not converged
     c_bands:  4 eigenvalues not converged
     c_bands:  3 eigenvalues not converged
     c_bands:  2 eigenvalues not converged
     c_bands:  3 eigenvalues not converged
     ethr =  1.16E-07,  avg # of iterations = 18.3

     total cpu time spent up to now is      172.5 secs

     total energy              =    -517.48471817 Ry
     estimated scf accuracy    <       0.00014193 Ry

     total magnetization       =     0.99 Bohr mag/cell
     absolute magnetization    =     1.01 Bohr mag/cell

     iteration # 19     ecut=    87.50 Ry     beta= 0.50
     Davidson diagonalization with overlap

---- Real-time Memory Report at c_bands before calling an iterative solver
            94 MiB given to the printing process from OS
             0 MiB allocation reported by mallinfo(arena+hblkhd)
         30071 MiB available memory on the node where the printing process lives
------------------
     c_bands:  2 eigenvalues not converged
     c_bands:  2 eigenvalues not converged
     c_bands:  2 eigenvalues not converged
     c_bands:  1 eigenvalues not converged
     c_bands:  4 eigenvalues not converged
     c_bands:  1 eigenvalues not converged
     c_bands:  1 eigenvalues not converged
     c_bands:  1 eigenvalues not converged
     c_bands:  3 eigenvalues not converged
     c_bands:  2 eigenvalues not converged
     c_bands:  1 eigenvalues not converged
     c_bands:  1 eigenvalues not converged
     c_bands:  4 eigenvalues not converged
     c_bands:  4 eigenvalues not converged
     c_bands:  1 eigenvalues not converged
     c_bands:  1 eigenvalues not converged
     c_bands:  3 eigenvalues not converged
     c_bands:  4 eigenvalues not converged
     ethr =  1.16E-07,  avg # of iterations = 15.6

     total cpu time spent up to now is      182.4 secs

     total energy              =    -517.48472403 Ry
     estimated scf accuracy    <       0.00020229 Ry

     total magnetization       =     0.94 Bohr mag/cell
     absolute magnetization    =     0.97 Bohr mag/cell

     iteration # 20     ecut=    87.50 Ry     beta= 0.50
     Davidson diagonalization with overlap

---- Real-time Memory Report at c_bands before calling an iterative solver
            94 MiB given to the printing process from OS
             0 MiB allocation reported by mallinfo(arena+hblkhd)
         30074 MiB available memory on the node where the printing process lives
------------------
     c_bands:  2 eigenvalues not converged
     c_bands:  2 eigenvalues not converged
     c_bands:  1 eigenvalues not converged
     c_bands:  2 eigenvalues not converged
     c_bands:  3 eigenvalues not converged
     c_bands:  3 eigenvalues not converged
     c_bands:  2 eigenvalues not converged
     c_bands:  1 eigenvalues not converged
     c_bands:  1 eigenvalues not converged
     c_bands:  1 eigenvalues not converged
     c_bands:  4 eigenvalues not converged
     c_bands:  3 eigenvalues not converged
     c_bands:  1 eigenvalues not converged
     ethr =  1.16E-07,  avg # of iterations = 12.8

     total cpu time spent up to now is      191.3 secs

     total energy              =    -517.48413426 Ry
     estimated scf accuracy    <       0.00139018 Ry

     total magnetization       =     1.03 Bohr mag/cell
     absolute magnetization    =     1.05 Bohr mag/cell

     iteration # 21     ecut=    87.50 Ry     beta= 0.50
     Davidson diagonalization with overlap

---- Real-time Memory Report at c_bands before calling an iterative solver
            95 MiB given to the printing process from OS
             0 MiB allocation reported by mallinfo(arena+hblkhd)
         30075 MiB available memory on the node where the printing process lives
------------------
     c_bands:  3 eigenvalues not converged
     c_bands:  2 eigenvalues not converged
     c_bands:  2 eigenvalues not converged
     c_bands:  3 eigenvalues not converged
     c_bands:  3 eigenvalues not converged
     c_bands:  2 eigenvalues not converged
     c_bands:  1 eigenvalues not converged
     c_bands:  3 eigenvalues not converged
     c_bands:  2 eigenvalues not converged
     c_bands:  2 eigenvalues not converged
     c_bands:  5 eigenvalues not converged
     c_bands:  4 eigenvalues not converged
     c_bands:  1 eigenvalues not converged
     c_bands:  3 eigenvalues not converged
     c_bands:  3 eigenvalues not converged
     c_bands:  5 eigenvalues not converged
     c_bands:  4 eigenvalues not converged
     c_bands:  2 eigenvalues not converged
     c_bands:  4 eigenvalues not converged
     c_bands:  3 eigenvalues not converged
     c_bands:  5 eigenvalues not converged
     c_bands:  1 eigenvalues not converged
     c_bands:  1 eigenvalues not converged
     ethr =  1.16E-07,  avg # of iterations = 16.8

     total cpu time spent up to now is      204.1 secs

     total energy              =    -517.48448911 Ry
     estimated scf accuracy    <       0.00001992 Ry

     total magnetization       =     1.29 Bohr mag/cell
     absolute magnetization    =     1.32 Bohr mag/cell

     iteration # 22     ecut=    87.50 Ry     beta= 0.50
     Davidson diagonalization with overlap

---- Real-time Memory Report at c_bands before calling an iterative solver
            95 MiB given to the printing process from OS
             0 MiB allocation reported by mallinfo(arena+hblkhd)
         30072 MiB available memory on the node where the printing process lives
------------------
     c_bands:  2 eigenvalues not converged
     c_bands:  2 eigenvalues not converged
     c_bands:  2 eigenvalues not converged
     c_bands:  3 eigenvalues not converged
     c_bands:  3 eigenvalues not converged
     c_bands:  2 eigenvalues not converged
     c_bands:  1 eigenvalues not converged
     c_bands:  3 eigenvalues not converged
     c_bands:  2 eigenvalues not converged
     c_bands:  2 eigenvalues not converged
     c_bands:  1 eigenvalues not converged
     c_bands:  2 eigenvalues not converged
     c_bands:  1 eigenvalues not converged
     c_bands:  5 eigenvalues not converged
     c_bands:  4 eigenvalues not converged
     c_bands:  2 eigenvalues not converged
     c_bands:  3 eigenvalues not converged
     c_bands:  4 eigenvalues not converged
     c_bands:  5 eigenvalues not converged
     c_bands:  4 eigenvalues not converged
     c_bands:  1 eigenvalues not converged
     c_bands:  3 eigenvalues not converged
     c_bands:  3 eigenvalues not converged
     c_bands:  5 eigenvalues not converged
     ethr =  3.56E-08,  avg # of iterations = 17.6

     total cpu time spent up to now is      216.6 secs

     total energy              =    -517.48453119 Ry
     estimated scf accuracy    <       0.00001863 Ry

     total magnetization       =     1.37 Bohr mag/cell
     absolute magnetization    =     1.40 Bohr mag/cell

     iteration # 23     ecut=    87.50 Ry     beta= 0.50
     Davidson diagonalization with overlap

---- Real-time Memory Report at c_bands before calling an iterative solver
            95 MiB given to the printing process from OS
             0 MiB allocation reported by mallinfo(arena+hblkhd)
         30073 MiB available memory on the node where the printing process lives
------------------
     c_bands:  3 eigenvalues not converged
     c_bands:  2 eigenvalues not converged
     c_bands:  2 eigenvalues not converged
     c_bands:  2 eigenvalues not converged
     c_bands:  4 eigenvalues not converged
     c_bands:  3 eigenvalues not converged
     c_bands:  2 eigenvalues not converged
     c_bands:  1 eigenvalues not converged
     c_bands:  3 eigenvalues not converged
     c_bands:  1 eigenvalues not converged
     c_bands:  5 eigenvalues not converged
     c_bands:  1 eigenvalues not converged
     c_bands:  3 eigenvalues not converged
     c_bands:  2 eigenvalues not converged
     c_bands:  2 eigenvalues not converged
     c_bands:  4 eigenvalues not converged
     c_bands:  5 eigenvalues not converged
     c_bands:  1 eigenvalues not converged
     c_bands:  2 eigenvalues not converged
     c_bands:  1 eigenvalues not converged
     ethr =  3.33E-08,  avg # of iterations = 17.5

     total cpu time spent up to now is      229.6 secs

     total energy              =    -517.48457648 Ry
     estimated scf accuracy    <       0.00002233 Ry

     total magnetization       =     1.23 Bohr mag/cell
     absolute magnetization    =     1.26 Bohr mag/cell

     iteration # 24     ecut=    87.50 Ry     beta= 0.50
     Davidson diagonalization with overlap

---- Real-time Memory Report at c_bands before calling an iterative solver
            95 MiB given to the printing process from OS
             0 MiB allocation reported by mallinfo(arena+hblkhd)
         30072 MiB available memory on the node where the printing process lives
------------------
     c_bands:  2 eigenvalues not converged
     c_bands:  2 eigenvalues not converged
     c_bands:  1 eigenvalues not converged
     c_bands:  2 eigenvalues not converged
     c_bands:  2 eigenvalues not converged
     c_bands:  2 eigenvalues not converged
     c_bands:  4 eigenvalues not converged
     c_bands:  2 eigenvalues not converged
     c_bands:  2 eigenvalues not converged
     c_bands:  2 eigenvalues not converged
     c_bands:  2 eigenvalues not converged
     c_bands:  2 eigenvalues not converged
     c_bands:  2 eigenvalues not converged
     c_bands:  2 eigenvalues not converged
     c_bands:  1 eigenvalues not converged
     c_bands:  5 eigenvalues not converged
     c_bands:  3 eigenvalues not converged
     c_bands:  1 eigenvalues not converged
     c_bands:  2 eigenvalues not converged
     c_bands:  3 eigenvalues not converged
     c_bands:  3 eigenvalues not converged
     c_bands:  3 eigenvalues not converged
     c_bands:  1 eigenvalues not converged
     c_bands:  4 eigenvalues not converged
     c_bands:  3 eigenvalues not converged
     c_bands:  1 eigenvalues not converged
     c_bands:  2 eigenvalues not converged
     ethr =  3.33E-08,  avg # of iterations = 18.6

     total cpu time spent up to now is      243.5 secs

     total energy              =    -517.48469142 Ry
     estimated scf accuracy    <       0.00000886 Ry

     total magnetization       =     1.08 Bohr mag/cell
     absolute magnetization    =     1.10 Bohr mag/cell

     iteration # 25     ecut=    87.50 Ry     beta= 0.50
     Davidson diagonalization with overlap

---- Real-time Memory Report at c_bands before calling an iterative solver
            95 MiB given to the printing process from OS
             0 MiB allocation reported by mallinfo(arena+hblkhd)
         30073 MiB available memory on the node where the printing process lives
------------------
     c_bands:  2 eigenvalues not converged
     c_bands:  2 eigenvalues not converged
     c_bands:  2 eigenvalues not converged
     c_bands:  2 eigenvalues not converged
     c_bands:  2 eigenvalues not converged
     c_bands:  4 eigenvalues not converged
     c_bands:  2 eigenvalues not converged
     c_bands:  3 eigenvalues not converged
     c_bands:  2 eigenvalues not converged
     c_bands:  1 eigenvalues not converged
     c_bands:  2 eigenvalues not converged
     c_bands:  5 eigenvalues not converged
     c_bands:  3 eigenvalues not converged
     c_bands:  2 eigenvalues not converged
     c_bands:  2 eigenvalues not converged
     c_bands:  4 eigenvalues not converged
     c_bands:  1 eigenvalues not converged
     c_bands:  1 eigenvalues not converged
     c_bands:  1 eigenvalues not converged
     c_bands:  4 eigenvalues not converged
     c_bands:  2 eigenvalues not converged
     c_bands:  1 eigenvalues not converged
     c_bands:  4 eigenvalues not converged
     ethr =  1.58E-08,  avg # of iterations = 17.6

     total cpu time spent up to now is      256.5 secs

     total energy              =    -517.48474939 Ry
     estimated scf accuracy    <       0.00004388 Ry

     total magnetization       =     0.97 Bohr mag/cell
     absolute magnetization    =     1.00 Bohr mag/cell

     iteration # 26     ecut=    87.50 Ry     beta= 0.50
     Davidson diagonalization with overlap

---- Real-time Memory Report at c_bands before calling an iterative solver
            95 MiB given to the printing process from OS
             0 MiB allocation reported by mallinfo(arena+hblkhd)
         30074 MiB available memory on the node where the printing process lives
------------------
     c_bands:  2 eigenvalues not converged
     c_bands:  2 eigenvalues not converged
     c_bands:  2 eigenvalues not converged
     c_bands:  1 eigenvalues not converged
     c_bands:  3 eigenvalues not converged
     c_bands:  1 eigenvalues not converged
     c_bands:  1 eigenvalues not converged
     c_bands:  2 eigenvalues not converged
     c_bands:  2 eigenvalues not converged
     c_bands:  4 eigenvalues not converged
     c_bands:  2 eigenvalues not converged
     ethr =  1.58E-08,  avg # of iterations =  8.3

     total cpu time spent up to now is      262.9 secs

     total energy              =    -517.48476069 Ry
     estimated scf accuracy    <       0.00004415 Ry

     total magnetization       =     0.97 Bohr mag/cell
     absolute magnetization    =     1.00 Bohr mag/cell

     iteration # 27     ecut=    87.50 Ry     beta= 0.50
     Davidson diagonalization with overlap

---- Real-time Memory Report at c_bands before calling an iterative solver
            95 MiB given to the printing process from OS
             0 MiB allocation reported by mallinfo(arena+hblkhd)
         30065 MiB available memory on the node where the printing process lives
------------------
     c_bands:  1 eigenvalues not converged
     c_bands:  2 eigenvalues not converged
     c_bands:  2 eigenvalues not converged
     c_bands:  1 eigenvalues not converged
     c_bands:  2 eigenvalues not converged
     c_bands:  3 eigenvalues not converged
     c_bands:  3 eigenvalues not converged
     c_bands:  2 eigenvalues not converged
     c_bands:  1 eigenvalues not converged
     c_bands:  2 eigenvalues not converged
     c_bands:  2 eigenvalues not converged
     c_bands:  1 eigenvalues not converged
     c_bands:  1 eigenvalues not converged
     c_bands:  3 eigenvalues not converged
     c_bands:  4 eigenvalues not converged
     c_bands:  1 eigenvalues not converged
     c_bands:  1 eigenvalues not converged
     c_bands:  1 eigenvalues not converged
     c_bands:  2 eigenvalues not converged
     c_bands:  3 eigenvalues not converged
     ethr =  1.58E-08,  avg # of iterations = 17.4

     total cpu time spent up to now is      275.4 secs

     total energy              =    -517.48479881 Ry
     estimated scf accuracy    <       0.00005125 Ry

     total magnetization       =     0.90 Bohr mag/cell
     absolute magnetization    =     0.93 Bohr mag/cell

     iteration # 28     ecut=    87.50 Ry     beta= 0.50
     Davidson diagonalization with overlap

---- Real-time Memory Report at c_bands before calling an iterative solver
            96 MiB given to the printing process from OS
             0 MiB allocation reported by mallinfo(arena+hblkhd)
         30067 MiB available memory on the node where the printing process lives
------------------
     c_bands:  1 eigenvalues not converged
     c_bands:  2 eigenvalues not converged
     c_bands:  1 eigenvalues not converged
     c_bands:  2 eigenvalues not converged
     c_bands:  2 eigenvalues not converged
     c_bands:  3 eigenvalues not converged
     c_bands:  3 eigenvalues not converged
     c_bands:  2 eigenvalues not converged
     c_bands:  2 eigenvalues not converged
     c_bands:  1 eigenvalues not converged
     c_bands:  2 eigenvalues not converged
     c_bands:  1 eigenvalues not converged
     c_bands:  1 eigenvalues not converged
     c_bands:  1 eigenvalues not converged
     c_bands:  2 eigenvalues not converged
     c_bands:  4 eigenvalues not converged
     c_bands:  4 eigenvalues not converged
     c_bands:  2 eigenvalues not converged
     c_bands:  3 eigenvalues not converged
     c_bands:  3 eigenvalues not converged
     c_bands:  2 eigenvalues not converged
     ethr =  1.58E-08,  avg # of iterations = 17.1

     total cpu time spent up to now is      287.6 secs

     total energy              =    -517.48481060 Ry
     estimated scf accuracy    <       0.00004191 Ry

     total magnetization       =     0.83 Bohr mag/cell
     absolute magnetization    =     0.86 Bohr mag/cell

     iteration # 29     ecut=    87.50 Ry     beta= 0.50
     Davidson diagonalization with overlap

---- Real-time Memory Report at c_bands before calling an iterative solver
            96 MiB given to the printing process from OS
             0 MiB allocation reported by mallinfo(arena+hblkhd)
         30067 MiB available memory on the node where the printing process lives
------------------
     c_bands:  1 eigenvalues not converged
     c_bands:  2 eigenvalues not converged
     c_bands:  2 eigenvalues not converged
     c_bands:  3 eigenvalues not converged
     c_bands:  1 eigenvalues not converged
     c_bands:  1 eigenvalues not converged
     c_bands:  1 eigenvalues not converged
     c_bands:  4 eigenvalues not converged
     ethr =  1.58E-08,  avg # of iterations =  8.1

     total cpu time spent up to now is      293.8 secs

     total energy              =    -517.48481607 Ry
     estimated scf accuracy    <       0.00004693 Ry

     total magnetization       =     0.86 Bohr mag/cell
     absolute magnetization    =     0.89 Bohr mag/cell

     iteration # 30     ecut=    87.50 Ry     beta= 0.50
     Davidson diagonalization with overlap

---- Real-time Memory Report at c_bands before calling an iterative solver
            96 MiB given to the printing process from OS
             0 MiB allocation reported by mallinfo(arena+hblkhd)
         30071 MiB available memory on the node where the printing process lives
------------------
     c_bands:  2 eigenvalues not converged
     c_bands:  2 eigenvalues not converged
     c_bands:  3 eigenvalues not converged
     c_bands:  1 eigenvalues not converged
     c_bands:  3 eigenvalues not converged
     ethr =  1.58E-08,  avg # of iterations =  3.6

     total cpu time spent up to now is      298.9 secs

     total energy              =    -517.48483980 Ry
     estimated scf accuracy    <       0.00004368 Ry

     total magnetization       =     0.87 Bohr mag/cell
     absolute magnetization    =     0.89 Bohr mag/cell

     iteration # 31     ecut=    87.50 Ry     beta= 0.50
     Davidson diagonalization with overlap

---- Real-time Memory Report at c_bands before calling an iterative solver
            96 MiB given to the printing process from OS
             0 MiB allocation reported by mallinfo(arena+hblkhd)
         30070 MiB available memory on the node where the printing process lives
------------------
     c_bands:  2 eigenvalues not converged
     c_bands:  2 eigenvalues not converged
     c_bands:  2 eigenvalues not converged
     c_bands:  2 eigenvalues not converged
     c_bands:  3 eigenvalues not converged
     c_bands:  2 eigenvalues not converged
     c_bands:  1 eigenvalues not converged
     c_bands:  4 eigenvalues not converged
     c_bands:  3 eigenvalues not converged
     c_bands:  3 eigenvalues not converged
     c_bands:  1 eigenvalues not converged
     c_bands:  3 eigenvalues not converged
     c_bands:  1 eigenvalues not converged
     c_bands:  1 eigenvalues not converged
     ethr =  1.58E-08,  avg # of iterations = 15.5

     total cpu time spent up to now is      310.2 secs

     total energy              =    -517.48479460 Ry
     estimated scf accuracy    <       0.00011991 Ry

     total magnetization       =     0.84 Bohr mag/cell
     absolute magnetization    =     0.86 Bohr mag/cell

     iteration # 32     ecut=    87.50 Ry     beta= 0.50
     Davidson diagonalization with overlap

---- Real-time Memory Report at c_bands before calling an iterative solver
            96 MiB given to the printing process from OS
             0 MiB allocation reported by mallinfo(arena+hblkhd)
         30073 MiB available memory on the node where the printing process lives
------------------
     c_bands:  2 eigenvalues not converged
     c_bands:  2 eigenvalues not converged
     c_bands:  4 eigenvalues not converged
     c_bands:  4 eigenvalues not converged
     c_bands:  2 eigenvalues not converged
     c_bands:  3 eigenvalues not converged
     c_bands:  4 eigenvalues not converged
     c_bands:  4 eigenvalues not converged
     c_bands:  5 eigenvalues not converged
     c_bands:  4 eigenvalues not converged
     c_bands:  3 eigenvalues not converged
     c_bands:  3 eigenvalues not converged
     c_bands:  1 eigenvalues not converged
     c_bands:  3 eigenvalues not converged
     c_bands:  4 eigenvalues not converged
     c_bands:  1 eigenvalues not converged
     c_bands:  4 eigenvalues not converged
     c_bands:  2 eigenvalues not converged
     c_bands:  5 eigenvalues not converged
     c_bands:  4 eigenvalues not converged
     c_bands:  1 eigenvalues not converged
     c_bands:  5 eigenvalues not converged
     c_bands:  3 eigenvalues not converged
     c_bands:  5 eigenvalues not converged
     c_bands:  4 eigenvalues not converged
     c_bands:  5 eigenvalues not converged
     c_bands:  4 eigenvalues not converged
     c_bands:  4 eigenvalues not converged
     c_bands:  5 eigenvalues not converged
     c_bands:  5 eigenvalues not converged
     c_bands:  3 eigenvalues not converged
     c_bands:  3 eigenvalues not converged
     ethr =  1.58E-08,  avg # of iterations = 18.8

     total cpu time spent up to now is      325.4 secs

     total energy              =    -517.48495651 Ry
     estimated scf accuracy    <       0.00008617 Ry

     total magnetization       =     0.67 Bohr mag/cell
     absolute magnetization    =     0.71 Bohr mag/cell

     iteration # 33     ecut=    87.50 Ry     beta= 0.50
     Davidson diagonalization with overlap

---- Real-time Memory Report at c_bands before calling an iterative solver
            96 MiB given to the printing process from OS
             0 MiB allocation reported by mallinfo(arena+hblkhd)
         30074 MiB available memory on the node where the printing process lives
------------------
     c_bands:  2 eigenvalues not converged
     c_bands:  2 eigenvalues not converged
     c_bands:  3 eigenvalues not converged
     c_bands:  1 eigenvalues not converged
     c_bands:  1 eigenvalues not converged
     c_bands:  1 eigenvalues not converged
     c_bands:  2 eigenvalues not converged
     ethr =  1.58E-08,  avg # of iterations = 10.8

     total cpu time spent up to now is      332.2 secs

     total energy              =    -517.48492434 Ry
     estimated scf accuracy    <       0.00009057 Ry

     total magnetization       =     0.66 Bohr mag/cell
     absolute magnetization    =     0.70 Bohr mag/cell

     iteration # 34     ecut=    87.50 Ry     beta= 0.50
     Davidson diagonalization with overlap

---- Real-time Memory Report at c_bands before calling an iterative solver
            96 MiB given to the printing process from OS
             0 MiB allocation reported by mallinfo(arena+hblkhd)
         30075 MiB available memory on the node where the printing process lives
------------------
     c_bands:  2 eigenvalues not converged
     c_bands:  2 eigenvalues not converged
     c_bands:  1 eigenvalues not converged
     c_bands:  1 eigenvalues not converged
     c_bands:  1 eigenvalues not converged
     c_bands:  1 eigenvalues not converged
     ethr =  1.58E-08,  avg # of iterations =  8.7

     total cpu time spent up to now is      339.0 secs

     total energy              =    -517.48487629 Ry
     estimated scf accuracy    <       0.00007181 Ry

     total magnetization       =     0.70 Bohr mag/cell
     absolute magnetization    =     0.74 Bohr mag/cell

     iteration # 35     ecut=    87.50 Ry     beta= 0.50
     Davidson diagonalization with overlap

---- Real-time Memory Report at c_bands before calling an iterative solver
            96 MiB given to the printing process from OS
             0 MiB allocation reported by mallinfo(arena+hblkhd)
         30077 MiB available memory on the node where the printing process lives
------------------
     c_bands:  1 eigenvalues not converged
     c_bands:  2 eigenvalues not converged
     c_bands:  1 eigenvalues not converged
     c_bands:  1 eigenvalues not converged
     c_bands:  1 eigenvalues not converged
     c_bands:  2 eigenvalues not converged
     c_bands:  3 eigenvalues not converged
     c_bands:  2 eigenvalues not converged
     c_bands:  2 eigenvalues not converged
     c_bands:  1 eigenvalues not converged
     c_bands:  1 eigenvalues not converged
     c_bands:  1 eigenvalues not converged
     c_bands:  3 eigenvalues not converged
     c_bands:  2 eigenvalues not converged
     c_bands:  1 eigenvalues not converged
     c_bands:  2 eigenvalues not converged
     ethr =  1.58E-08,  avg # of iterations = 15.0

     total cpu time spent up to now is      349.8 secs

     total energy              =    -517.48488187 Ry
     estimated scf accuracy    <       0.00033740 Ry

     total magnetization       =     0.76 Bohr mag/cell
     absolute magnetization    =     0.78 Bohr mag/cell

     iteration # 36     ecut=    87.50 Ry     beta= 0.50
     Davidson diagonalization with overlap

---- Real-time Memory Report at c_bands before calling an iterative solver
            96 MiB given to the printing process from OS
             0 MiB allocation reported by mallinfo(arena+hblkhd)
         30074 MiB available memory on the node where the printing process lives
------------------
     c_bands:  2 eigenvalues not converged
     c_bands:  1 eigenvalues not converged
     c_bands:  1 eigenvalues not converged
     c_bands:  1 eigenvalues not converged
     c_bands:  1 eigenvalues not converged
     c_bands:  1 eigenvalues not converged
     ethr =  1.58E-08,  avg # of iterations = 11.1

     total cpu time spent up to now is      357.2 secs

     total energy              =    -517.48490852 Ry
     estimated scf accuracy    <       0.00035554 Ry

     total magnetization       =     0.78 Bohr mag/cell
     absolute magnetization    =     0.81 Bohr mag/cell

     iteration # 37     ecut=    87.50 Ry     beta= 0.50
     Davidson diagonalization with overlap

---- Real-time Memory Report at c_bands before calling an iterative solver
            96 MiB given to the printing process from OS
             0 MiB allocation reported by mallinfo(arena+hblkhd)
         30075 MiB available memory on the node where the printing process lives
------------------
     c_bands:  2 eigenvalues not converged
     c_bands:  1 eigenvalues not converged
     c_bands:  2 eigenvalues not converged
     c_bands:  1 eigenvalues not converged
     c_bands:  1 eigenvalues not converged
     ethr =  1.58E-08,  avg # of iterations = 12.8

     total cpu time spent up to now is      365.9 secs

     total energy              =    -517.48493566 Ry
     estimated scf accuracy    <       0.00036813 Ry

     total magnetization       =     0.72 Bohr mag/cell
     absolute magnetization    =     0.76 Bohr mag/cell

     iteration # 38     ecut=    87.50 Ry     beta= 0.50
     Davidson diagonalization with overlap

---- Real-time Memory Report at c_bands before calling an iterative solver
            97 MiB given to the printing process from OS
             0 MiB allocation reported by mallinfo(arena+hblkhd)
         30075 MiB available memory on the node where the printing process lives
------------------
     c_bands:  1 eigenvalues not converged
     c_bands:  2 eigenvalues not converged
     ethr =  1.58E-08,  avg # of iterations = 10.4

     total cpu time spent up to now is      373.0 secs

     total energy              =    -517.48494379 Ry
[...]
    23.0292  23.3075  23.4437  23.5091  23.5862  23.5884  23.7279  23.7322

     occupation numbers 
     1.0000   1.0000   1.0000   1.0000   1.0000   1.0000   1.0000   1.0000
     1.0000   1.0000   1.0000   1.0000   1.0000   1.0000   1.0000   1.0000
     1.0000   1.0000   1.0000   1.0000   1.0000   1.0000   1.0001   1.0061
     0.7503   0.4476   0.3143   0.2588   0.2014   0.1999   0.1196   0.1176

          k = 0.0000 0.1667 0.3333 (  8142 PWs)   bands (ev):

   -20.5079 -20.1242 -19.9653 -19.9352   2.6577   2.7729   2.9005   3.5317
     4.0416   4.6043   4.8079   4.9116   4.9485   5.2023   5.8474   6.2295
    20.0595  20.2480  20.5608  20.6044  20.8862  21.3145  21.4709  22.2101
    22.5728  22.9767  23.3423  23.4182  23.4469  23.4933  23.5095  23.6658

     occupation numbers 
     1.0000   1.0000   1.0000   1.0000   1.0000   1.0000   1.0000   1.0000
     1.0000   1.0000   1.0000   1.0000   1.0000   1.0000   1.0000   1.0000
     1.0000   1.0000   1.0000   1.0000   1.0001   1.0015   1.0039   1.0704
     1.0618   0.8036   0.4117   0.3376   0.3115   0.2716   0.2584   0.1518

          k = 0.0000 0.1667-0.5000 (  8112 PWs)   bands (ev):

   -20.3218 -20.3162 -19.9522 -19.9467   3.0412   3.0431   3.3657   3.3692
     3.6650   3.6683   4.8676   4.8709   5.3583   5.3619   5.7311   5.7333
    20.9378  20.9387  21.1131  21.1133  21.1521  21.1531  22.6037  22.6077
    22.6829  22.6858  22.7976  22.7980  23.1328  23.1367  23.8528  23.8530

     occupation numbers 
     1.0000   1.0000   1.0000   1.0000   1.0000   1.0000   1.0000   1.0000
     1.0000   1.0000   1.0000   1.0000   1.0000   1.0000   1.0000   1.0000
     1.0001   1.0001   1.0004   1.0004   1.0005   1.0005   1.0530   1.0517
     1.0222   1.0209   0.9557   0.9555   0.6384   0.6342   0.0707   0.0706

          k = 0.0000 0.3333 0.3333 (  8134 PWs)   bands (ev):

   -20.3962 -20.0857 -20.0801 -19.9737   2.8110   2.8139   3.0805   3.1566
     3.8527   4.3737   4.3786   5.3409   5.3639   5.3671   5.4105   6.2802
    20.1509  21.1529  21.1538  21.4713  21.6181  21.6182  21.6275  22.3867
    22.5325  22.5332  22.8935  23.4153  23.4417  23.5997  23.6278  23.6595

     occupation numbers 
     1.0000   1.0000   1.0000   1.0000   1.0000   1.0000   1.0000   1.0000
     1.0000   1.0000   1.0000   1.0000   1.0000   1.0000   1.0000   1.0000
     1.0000   1.0005   1.0005   1.0040   1.0088   1.0088   1.0092   1.0833
     1.0708   1.0707   0.8809   0.3403   0.3161   0.1923   0.1742   0.1553

          k = 0.0000 0.3333-0.5000 (  8116 PWs)   bands (ev):

   -20.2439 -20.2383 -20.0303 -20.0249   2.8399   2.8404   3.2123   3.2140
     3.7281   3.7316   4.8666   4.8702   5.4614   5.4633   5.9437   5.9441
    20.9044  20.9045  21.7384  21.7389  21.8108  21.8114  22.0863  22.0884
    22.6995  22.7023  22.7575  22.7590  23.6091  23.6154  23.6335  23.6371

     occupation numbers 
     1.0000   1.0000   1.0000   1.0000   1.0000   1.0000   1.0000   1.0000
     1.0000   1.0000   1.0000   1.0000   1.0000   1.0000   1.0000   1.0000
     1.0001   1.0001   1.0156   1.0156   1.0213   1.0214   1.0539   1.0542
     1.0142   1.0128   0.9820   0.9811   0.1861   0.1821   0.1707   0.1685

          k = 0.0000-0.5000-0.5000 (  8116 PWs)   bands (ev):

   -20.1426 -20.1317 -20.1317 -20.1317   2.8932   2.8932   2.8960   2.8971
     4.2618   4.2689   4.2702   4.2702   5.8713   5.8713   5.8743   5.8759
    21.1594  21.1598  21.1599  21.1599  22.5279  22.5287  22.5300  22.5300
    22.6629  22.6629  22.6655  22.6668  23.4007  23.4128  23.4128  23.4130

     occupation numbers 
     1.0000   1.0000   1.0000   1.0000   1.0000   1.0000   1.0000   1.0000
     1.0000   1.0000   1.0000   1.0000   1.0000   1.0000   1.0000   1.0000
     1.0005   1.0005   1.0005   1.0005   1.0717   1.0716   1.0713   1.0713
     1.0312   1.0312   1.0300   1.0294   0.3541   0.3427   0.3427   0.3424

          k = 0.1667 0.1667 0.1667 (  8142 PWs)   bands (ev):

   -20.5970 -19.9822 -19.9739 -19.9739   2.4650   2.4650   2.4666   4.2966
     4.3019   4.3019   4.9882   4.9882   4.9920   5.0083   6.3559   6.3559
    19.5822  19.5822  19.5826  19.8512  21.0062  21.0062  21.0064  21.7352
    23.0067  23.3819  23.3819  23.5698  23.5709  23.5709  23.6310  23.6310

     occupation numbers 
     1.0000   1.0000   1.0000   1.0000   1.0000   1.0000   1.0000   1.0000
     1.0000   1.0000   1.0000   1.0000   1.0000   1.0000   1.0000   1.0000
     1.0000   1.0000   1.0000   1.0000   1.0002   1.0002   1.0002   1.0154
     0.7734   0.3722   0.3722   0.2128   0.2121   0.2121   0.1723   0.1723

          k = 0.1667 0.1667 0.3333 (  8148 PWs)   bands (ev):

   -20.4706 -20.1127 -19.9774 -19.9721   2.5965   2.5978   2.7756   3.9493
     3.9527   4.1419   4.8735   5.0648   5.0678   5.2538   6.0399   6.1572
    20.1713  20.2516  20.2520  20.4495  21.2926  22.0410  22.2420  22.2421
    22.5859  22.9702  22.9734  23.1478  23.4971  23.4991  23.5796  23.6044

     occupation numbers 
     1.0000   1.0000   1.0000   1.0000   1.0000   1.0000   1.0000   1.0000
     1.0000   1.0000   1.0000   1.0000   1.0000   1.0000   1.0000   1.0000
     1.0000   1.0000   1.0000   1.0000   1.0013   1.0477   1.0741   1.0741
     1.0583   0.8099   0.8068   0.6219   0.2685   0.2668   0.2059   0.1892

          k = 0.1667 0.1667-0.5000 (  8100 PWs)   bands (ev):

   -20.2967 -20.2912 -19.9766 -19.9711   2.6737   2.6753   3.3469   3.3488
     3.8010   3.8045   5.0642   5.0673   5.5789   5.5797   5.6322   5.6359
    20.6829  20.6839  21.0958  21.0961  21.8267  21.8272  22.1362  22.1377
    22.5371  22.5376  22.9958  22.9964  23.3061  23.3112  23.7737  23.7742

     occupation numbers 
     1.0000   1.0000   1.0000   1.0000   1.0000   1.0000   1.0000   1.0000
     1.0000   1.0000   1.0000   1.0000   1.0000   1.0000   1.0000   1.0000
     1.0000   1.0000   1.0003   1.0003   1.0227   1.0228   1.0608   1.0610
     1.0700   1.0699   0.7845   0.7840   0.4491   0.4437   0.0993   0.0991

          k = 0.1667 0.3333 0.3333 (  8122 PWs)   bands (ev):

   -20.3678 -20.0844 -20.0788 -20.0018   2.4618   2.5436   2.5455   3.4001
     4.0262   4.6502   4.6542   5.4010   5.4144   5.4176   5.7519   6.2144
    20.3176  20.4280  20.7292  20.7295  22.0453  22.0454  22.2582  22.6273
    22.6281  22.7132  22.9233  23.1073  23.4505  23.4728  23.5999  23.6031

     occupation numbers 
     1.0000   1.0000   1.0000   1.0000   1.0000   1.0000   1.0000   1.0000
     1.0000   1.0000   1.0000   1.0000   1.0000   1.0000   1.0000   1.0000
     1.0000   1.0000   1.0000   1.0000   1.0482   1.0483   1.0758   1.0451
     1.0448   1.0072   0.8544   0.6665   0.3083   0.2889   0.1922   0.1901

          k = 0.1667 0.3333-0.5000 (  8110 PWs)   bands (ev):

   -20.2286 -20.2229 -20.0434 -20.0381   2.4142   2.4151   2.8203   2.8209
     4.3143   4.3175   5.2674   5.2696   5.5137   5.5157   5.9034   5.9041
    20.8453  20.8461  21.0343  21.0343  21.8547  21.8553  21.8644  21.8649
    22.8201  22.8226  23.1365  23.1371  23.5093  23.5154  23.6060  23.6062

     occupation numbers 
     1.0000   1.0000   1.0000   1.0000   1.0000   1.0000   1.0000   1.0000
     1.0000   1.0000   1.0000   1.0000   1.0000   1.0000   1.0000   1.0000
     1.0000   1.0000   1.0002   1.0002   1.0254   1.0255   1.0264   1.0264
     0.9397   0.9378   0.6343   0.6336   0.2586   0.2537   0.1882   0.1880

          k = 0.1667-0.5000-0.5000 (  8112 PWs)   bands (ev):

   -20.1411 -20.1302 -20.1302 -20.1302   2.4655   2.4655   2.4670   2.4675
     4.8061   4.8116   4.8121   4.8121   5.8741   5.8741   5.8771   5.8787
    21.0487  21.0490  21.0496  21.0496  21.6706  21.6706  21.6706  21.6715
    23.2344  23.2344  23.2374  23.2378  23.4201  23.4301  23.4301  23.4310

     occupation numbers 
     1.0000   1.0000   1.0000   1.0000   1.0000   1.0000   1.0000   1.0000
     1.0000   1.0000   1.0000   1.0000   1.0000   1.0000   1.0000   1.0000
     1.0002   1.0002   1.0002   1.0002   1.0114   1.0114   1.0114   1.0114
     0.5261   0.5261   0.5229   0.5224   0.3359   0.3267   0.3267   0.3258

          k = 0.3333 0.3333 0.3333 (  8114 PWs)   bands (ev):

   -20.2903 -20.0843 -20.0762 -20.0762   2.1627   2.1627   2.1644   2.7153
     4.9945   4.9999   4.9999   5.5660   5.5660   5.5700   6.0368   6.0368
    19.8924  20.5916  20.5916  20.5918  21.8219  21.8219  21.8224  22.2842
    23.1170  23.1170  23.1198  23.5121  23.5169  23.5169  23.5224  23.5224

     occupation numbers 
     1.0000   1.0000   1.0000   1.0000   1.0000   1.0000   1.0000   1.0000
     1.0000   1.0000   1.0000   1.0000   1.0000   1.0000   1.0000   1.0000
     1.0000   1.0000   1.0000   1.0000   1.0223   1.0223   1.0223   1.0782
     0.6559   0.6559   0.6527   0.2563   0.2525   0.2525   0.2482   0.2482

          k = 0.3333 0.3333-0.5000 (  8110 PWs)   bands (ev):

   -20.1874 -20.1817 -20.0801 -20.0749   2.0104   2.0113   2.2582   2.2585
     5.1007   5.1044   5.6716   5.6740   5.7638   5.7655   5.7974   5.8011
    20.1519  20.1525  20.7637  20.7639  21.4494  21.4498  21.9263  21.9264
    23.2982  23.3033  23.3167  23.3170  23.4822  23.4885  23.5423  23.5440

     occupation numbers 
     1.0000   1.0000   1.0000   1.0000   1.0000   1.0000   1.0000   1.0000
     1.0000   1.0000   1.0000   1.0000   1.0000   1.0000   1.0000   1.0000
     1.0000   1.0000   1.0000   1.0000   1.0035   1.0035   1.0331   1.0331
     0.4573   0.4520   0.4380   0.4376   0.2808   0.2756   0.2329   0.2317

          k = 0.3333-0.5000-0.5000 (  8112 PWs)   bands (ev):

   -20.1382 -20.1272 -20.1272 -20.1272   1.9525   1.9525   1.9527   1.9541
     5.5612   5.5658   5.5659   5.5659   5.8798   5.8798   5.8827   5.8843
    20.1252  20.1259  20.1261  20.1261  21.8004  21.8004  21.8005  21.8011
    23.4315  23.4315  23.4365  23.4373  23.4496  23.4566  23.4566  23.4583

     occupation numbers 
     1.0000   1.0000   1.0000   1.0000   1.0000   1.0000   1.0000   1.0000
     1.0000   1.0000   1.0000   1.0000   1.0000   1.0000   1.0000   1.0000
     1.0000   1.0000   1.0000   1.0000   1.0204   1.0204   1.0204   1.0205
     0.3254   0.3254   0.3208   0.3201   0.3091   0.3029   0.3029   0.3014

          k =-0.5000-0.5000-0.5000 (  8144 PWs)   bands (ev):

   -20.1367 -20.1257 -20.1257 -20.1257   1.7602   1.7602   1.7602   1.7617
     5.8811   5.8811   5.8811   5.8856   5.8856   5.8871   5.8871   5.8871
    19.6853  19.6862  19.6862  19.6862  21.9922  21.9922  21.9922  21.9930
    23.4610  23.4610  23.4610  23.4683  23.4683  23.4683  23.4690  23.4690

     occupation numbers 
     1.0000   1.0000   1.0000   1.0000   1.0000   1.0000   1.0000   1.0000
     1.0000   1.0000   1.0000   1.0000   1.0000   1.0000   1.0000   1.0000
     1.0000   1.0000   1.0000   1.0000   1.0412   1.0412   1.0412   1.0413
     0.2990   0.2990   0.2990   0.2927   0.2927   0.2927   0.2921   0.2921

     the Fermi energy is    23.3532 ev

!    total energy              =    -517.48476340 Ry
     estimated scf accuracy    <          1.0E-09 Ry
     smearing contrib. (-TS)   =      -0.04591830 Ry
     internal energy E=F+TS    =    -517.43884510 Ry

     The total energy is F=E-TS. E is the sum of the following terms:
     one-electron contribution =      40.82062876 Ry
     hartree contribution      =      37.37577020 Ry
     xc contribution           =    -166.58011520 Ry
     ewald contribution        =    -429.05512886 Ry

     total magnetization       =     0.02 Bohr mag/cell
     absolute magnetization    =     0.07 Bohr mag/cell

     convergence has been achieved in 128 iterations

     Forces acting on atoms (cartesian axes, Ry/au):

     atom    1 type  1   force =     0.00000000    0.00000000    0.00000000
     atom    2 type  1   force =     0.00000000    0.00000000    0.00000000
     atom    3 type  1   force =     0.00000000    0.00000000    0.00000000
     atom    4 type  1   force =     0.00000000    0.00000000    0.00000000
     The non-local contrib.  to forces
     atom    1 type  1   force =     0.00000000    0.00000000    0.00000000
     atom    2 type  1   force =     0.00000000    0.00000000    0.00000000
     atom    3 type  1   force =     0.00000000    0.00000000    0.00000000
     atom    4 type  1   force =     0.00000000    0.00000000    0.00000000
     The ionic contribution  to forces
     atom    1 type  1   force =    -0.00000000   -0.00000000   -0.00000000
     atom    2 type  1   force =     0.00000000    0.00000000   -0.00000000
     atom    3 type  1   force =     0.00000000   -0.00000000    0.00000000
     atom    4 type  1   force =    -0.00000000    0.00000000    0.00000000
     The local contribution  to forces
     atom    1 type  1   force =     0.00000000    0.00000000   -0.00000000
     atom    2 type  1   force =     0.00000000    0.00000000   -0.00000000
     atom    3 type  1   force =     0.00000000   -0.00000000    0.00000000
     atom    4 type  1   force =     0.00000000    0.00000000    0.00000000
     The core correction contribution to forces
     atom    1 type  1   force =     0.00000000    0.00000000    0.00000000
     atom    2 type  1   force =    -0.00000000   -0.00000000    0.00000000
     atom    3 type  1   force =    -0.00000000   -0.00000000   -0.00000000
     atom    4 type  1   force =     0.00000000    0.00000000    0.00000000
     The Hubbard contrib.    to forces
     atom    1 type  1   force =     0.00000000    0.00000000    0.00000000
     atom    2 type  1   force =     0.00000000    0.00000000    0.00000000
     atom    3 type  1   force =     0.00000000    0.00000000    0.00000000
     atom    4 type  1   force =     0.00000000    0.00000000    0.00000000
     The SCF correction term to forces
     atom    1 type  1   force =     0.00000000   -0.00000000   -0.00000000
     atom    2 type  1   force =     0.00000000    0.00000000   -0.00000000
     atom    3 type  1   force =    -0.00000000   -0.00000000    0.00000000
     atom    4 type  1   force =    -0.00000000   -0.00000000    0.00000000

     Total force =     0.000000     Total SCF correction =     0.000000


     Computing stress (Cartesian axis) and pressure

          total   stress  (Ry/bohr**3)                   (kbar)     P=       -5.68
  -0.00003861   0.00000000   0.00000000           -5.68        0.00        0.00
   0.00000000  -0.00003861   0.00000000            0.00       -5.68        0.00
   0.00000000   0.00000000  -0.00003861            0.00        0.00       -5.68

     kinetic stress (kbar)  31248.98      0.00      0.00
                                0.00  31248.97      0.00
                                0.00      0.00  31248.97

     local   stress (kbar)   8432.32      0.00      0.00
                                0.00   8432.32      0.00
                                0.00      0.00   8432.32

     nonloc. stress (kbar)   -500.08      0.00      0.00
                                0.00   -500.08      0.00
                                0.00      0.00   -500.08

     hartree stress (kbar)   3116.80      0.00     -0.00
                                0.00   3116.80     -0.00
                               -0.00     -0.00   3116.80

     exc-cor stress (kbar)  21052.90      0.00      0.00
                                0.00  21052.90     -0.00
                                0.00     -0.00  21052.90

     corecor stress (kbar) -27577.30     -0.00     -0.00
                               -0.00 -27577.30     -0.00
                               -0.00     -0.00 -27577.30

     ewald   stress (kbar) -35779.30      0.00      0.00
                                0.00 -35779.30     -0.00
                                0.00     -0.00 -35779.30

     hubbard stress (kbar)      0.00      0.00      0.00
                                0.00      0.00      0.00
                                0.00      0.00      0.00

     DFT-D   stress (kbar)      0.00      0.00      0.00
                                0.00      0.00      0.00
                                0.00      0.00      0.00

     XDM     stress (kbar)      0.00      0.00      0.00
                                0.00      0.00      0.00
                                0.00      0.00      0.00

     dft-nl  stress (kbar)      0.00      0.00      0.00
                                0.00      0.00      0.00
                                0.00      0.00      0.00

     TS-vdW  stress (kbar)      0.00      0.00      0.00
                                0.00      0.00      0.00
                                0.00      0.00      0.00


                                0.00      0.00      0.00
                                0.00      0.00      0.00


                                0.00      0.00      0.00


     Writing output data file ./Uranium.save/

     init_run     :      2.45s CPU      2.55s WALL (       1 calls)
     electrons    :   1894.66s CPU   1930.89s WALL (       1 calls)
     forces       :      1.66s CPU      1.71s WALL (       1 calls)
     stress       :      3.44s CPU      3.59s WALL (       1 calls)

     Called by init_run:
     wfcinit      :      1.43s CPU      1.45s WALL (       1 calls)
     wfcinit:wfcr :      1.34s CPU      1.35s WALL (      40 calls)
     potinit      :      0.22s CPU      0.22s WALL (       1 calls)
     hinit0       :      0.41s CPU      0.42s WALL (       1 calls)

     Called by electrons:
     c_bands      :   1741.10s CPU   1762.59s WALL (     128 calls)
     sum_band     :    110.39s CPU    118.46s WALL (     128 calls)
     v_of_rho     :      9.06s CPU      9.12s WALL (     129 calls)
     v_h          :      0.21s CPU      0.21s WALL (     129 calls)
     v_xc         :      8.98s CPU      9.03s WALL (     131 calls)
     newd         :     32.77s CPU     39.31s WALL (     129 calls)
     mix_rho      :      1.03s CPU      1.05s WALL (     128 calls)

     Called by c_bands:
     init_us_2    :      5.24s CPU      5.38s WALL (   10360 calls)
     cegterg      :   1715.92s CPU   1737.07s WALL (    6010 calls)

     Called by sum_band:
     sum_band:wei :      0.56s CPU      0.57s WALL (     128 calls)
     sum_band:loo :     63.84s CPU     65.01s WALL (     128 calls)
     sum_band:buf :      0.22s CPU      0.22s WALL (    5120 calls)
     sum_band:ini :      2.45s CPU      2.49s WALL (    5120 calls)
     sum_band:cal :     19.91s CPU     20.10s WALL (    5120 calls)
     sum_band:bec :      3.22s CPU      3.24s WALL (    5120 calls)
     addusdens    :     44.25s CPU     50.93s WALL (     128 calls)
     addusd:skk   :      0.03s CPU      0.03s WALL (     128 calls)
     addusd:dgemm :     11.85s CPU     16.97s WALL (     256 calls)
     addusd:qvan2 :     29.75s CPU     29.89s WALL (     256 calls)

     Called by *egterg:
     cdiaghg      :    375.10s CPU    376.92s WALL (  104883 calls)
     cegterg:over :    123.37s CPU    125.01s WALL (   98873 calls)
     cegterg:upda :     39.43s CPU     39.68s WALL (   98873 calls)
     cegterg:last :    154.68s CPU    155.26s WALL (   35406 calls)
     h_psi        :    839.12s CPU    854.68s WALL (  104923 calls)
     s_psi        :    141.64s CPU    142.58s WALL (  104923 calls)
     g_psi        :      2.58s CPU      2.60s WALL (   98873 calls)

     Called by h_psi:
     h_psi:calbec :    146.03s CPU    148.05s WALL (  104923 calls)
     vloc_psi     :    550.41s CPU    563.15s WALL (  104923 calls)
     add_vuspsi   :    140.92s CPU    141.76s WALL (  104923 calls)

     General routines
     calbec       :    166.35s CPU    168.65s WALL (  110243 calls)
     fft          :      3.59s CPU      3.62s WALL (    3263 calls)
     ffts         :      0.21s CPU      0.21s WALL (     514 calls)
     fftw         :    560.18s CPU    573.07s WALL ( 2487818 calls)
     interpolate  :      0.41s CPU      0.42s WALL (     258 calls)

     Parallel routines

     PWSCF        :  31m43.55s CPU  32m21.96s WALL


   This run was terminated on:  22:40: 2   8Dec2021            

=------------------------------------------------------------------------------=
   JOB DONE.
=------------------------------------------------------------------------------=
