
     Program PWSCF v.6.8 starts on  8Dec2021 at 22:25:19 

     This program is part of the open-source Quantum ESPRESSO suite
     for quantum simulation of materials; please cite
         "P. Giannozzi et al., J. Phys.:Condens. Matter 21 395502 (2009);
         "P. Giannozzi et al., J. Phys.:Condens. Matter 29 465901 (2017);
         "P. Giannozzi et al., J. Chem. Phys. 152 154105 (2020);
          URL http://www.quantum-espresso.org", 
     in publications or presentations arising from this work. More details at
     http://www.quantum-espresso.org/quote

     Parallel version (MPI), running on    16 processors

     MPI processes distributed on     1 nodes
     R & G space division:  proc/nbgrp/npool/nimage =      16
     6534 MiB available memory on the printing compute node when the environment starts

     Reading input from run6.in
Warning: card &CELL ignored
Warning: card    CELL_DYNAMICS = 'BFGS' , ignored
Warning: card    CELL_DOFREE = 'ALL', ignored
Warning: card    PRESS_CONV_THR = 0.5 , ! THIS IS THE DEFAULT ignored
Warning: card  / ignored

     Current dimensions of program PWSCF are:
     Max number of different atomic species (ntypx) = 10
     Max number of k-points (npk) =  40000
     Max angular momentum in pseudopotentials (lmaxx) =  4
     file U.pbe-spfn-rrkjus_psl.1.0.0.UPF: wavefunction(s)  5F renormalized
     Found symmetry operation: I + ( -0.5000  0.5000  0.0000)
     This is a supercell, fractional translations are disabled
     Message from routine setup:
     using ibrav=0 with symmetry is DISCOURAGED, use correct ibrav instead

     Subspace diagonalization in iterative solution of the eigenvalue problem:
     a serial algorithm will be used


     Parallelization info
     --------------------
     sticks:   dense  smooth     PW     G-vecs:    dense   smooth      PW
     Min         260     130     35                12592     4457     633
     Max         262     132     37                12594     4458     635
     Sum        4165    2085    569               201485    71327   10131

     Using Slab Decomposition



     bravais-lattice index     =            0
     lattice parameter (alat)  =       8.3778  a.u.
     unit-cell volume          =     588.0141 (a.u.)^3
     number of atoms/cell      =            4
     number of atomic types    =            1
     number of electrons       =        56.00
     number of Kohn-Sham states=           32
     kinetic-energy cutoff     =      93.0000  Ry
     charge density cutoff     =     744.0000  Ry
     scf convergence threshold =      1.0E-08
     mixing beta               =       0.7000
     number of iterations used =            8  plain     mixing
     Exchange-correlation= PBE
                           (   1   4   3   4   0   0   0)

     celldm(1)=   8.377785  celldm(2)=   0.000000  celldm(3)=   0.000000
     celldm(4)=   0.000000  celldm(5)=   0.000000  celldm(6)=   0.000000

     crystal axes: (cart. coord. in units of alat)
               a(1) = (   1.000000   0.000000   0.000000 )  
               a(2) = (   0.000000   1.000000   0.000000 )  
               a(3) = (   0.000000   0.000000   1.000000 )  

     reciprocal axes: (cart. coord. in units 2 pi/alat)
               b(1) = (  1.000000  0.000000  0.000000 )  
               b(2) = (  0.000000  1.000000  0.000000 )  
               b(3) = (  0.000000  0.000000  1.000000 )  


     PseudoPot. # 1 for U  read from file:
     /home/myhawary/QE/runs/pseudo/U.pbe-spfn-rrkjus_psl.1.0.0.UPF
     MD5 check sum: b50a7459bb2a1ad67e79ea3a31ec714c
     Pseudo is Ultrasoft + core correction, Zval = 14.0
     Generated using &quot;atomic&quot; code by A. Dal Corso  v.6.2.2
     Using radial grid of 1291 points,  8 beta functions with: 
                l(1) =   0
                l(2) =   0
                l(3) =   1
                l(4) =   1
                l(5) =   2
                l(6) =   2
                l(7) =   3
                l(8) =   3
     Q(r) pseudized with 0 coefficients 


     atomic species   valence    mass     pseudopotential
        U             14.00   238.00000     U ( 1.00)

     Starting magnetic structure 
     atomic species   magnetization
        U            0.100

     48 Sym. Ops., with inversion, found


                                    s                        frac. trans.

      isym =  1     identity                                     

 cryst.   s( 1) = (     1          0          0      )
                  (     0          1          0      )
                  (     0          0          1      )

 cart.    s( 1) = (  1.0000000  0.0000000  0.0000000 )
                  (  0.0000000  1.0000000  0.0000000 )
                  (  0.0000000  0.0000000  1.0000000 )


      isym =  2     180 deg rotation - cart. axis [0,0,1]        

 cryst.   s( 2) = (    -1          0          0      )
                  (     0         -1          0      )
                  (     0          0          1      )

 cart.    s( 2) = ( -1.0000000  0.0000000  0.0000000 )
                  (  0.0000000 -1.0000000  0.0000000 )
                  (  0.0000000  0.0000000  1.0000000 )


      isym =  3     180 deg rotation - cart. axis [0,1,0]        

 cryst.   s( 3) = (    -1          0          0      )
                  (     0          1          0      )
                  (     0          0         -1      )

 cart.    s( 3) = ( -1.0000000  0.0000000  0.0000000 )
                  (  0.0000000  1.0000000  0.0000000 )
                  (  0.0000000  0.0000000 -1.0000000 )


      isym =  4     180 deg rotation - cart. axis [1,0,0]        

 cryst.   s( 4) = (     1          0          0      )
                  (     0         -1          0      )
                  (     0          0         -1      )

 cart.    s( 4) = (  1.0000000  0.0000000  0.0000000 )
                  (  0.0000000 -1.0000000  0.0000000 )
                  (  0.0000000  0.0000000 -1.0000000 )


      isym =  5     180 deg rotation - cart. axis [1,1,0]        

 cryst.   s( 5) = (     0          1          0      )
                  (     1          0          0      )
                  (     0          0         -1      )

 cart.    s( 5) = (  0.0000000  0.9999999  0.0000000 )
                  (  1.0000001  0.0000000  0.0000000 )
                  (  0.0000000  0.0000000 -1.0000000 )


      isym =  6     180 deg rotation - cart. axis [1,-1,0]       

 cryst.   s( 6) = (     0         -1          0      )
                  (    -1          0          0      )
                  (     0          0         -1      )

 cart.    s( 6) = (  0.0000000 -0.9999999  0.0000000 )
                  ( -1.0000001  0.0000000  0.0000000 )
                  (  0.0000000  0.0000000 -1.0000000 )


      isym =  7      90 deg rotation - cart. axis [0,0,-1]       

 cryst.   s( 7) = (     0         -1          0      )
                  (     1          0          0      )
                  (     0          0          1      )

 cart.    s( 7) = (  0.0000000  0.9999999  0.0000000 )
                  ( -1.0000001  0.0000000  0.0000000 )
                  (  0.0000000  0.0000000  1.0000000 )


      isym =  8      90 deg rotation - cart. axis [0,0,1]        

 cryst.   s( 8) = (     0          1          0      )
                  (    -1          0          0      )
                  (     0          0          1      )

 cart.    s( 8) = (  0.0000000 -0.9999999  0.0000000 )
                  (  1.0000001  0.0000000  0.0000000 )
                  (  0.0000000  0.0000000  1.0000000 )


      isym =  9     180 deg rotation - cart. axis [1,0,1]        

 cryst.   s( 9) = (     0          0          1      )
                  (     0         -1          0      )
                  (     1          0          0      )

 cart.    s( 9) = (  0.0000000  0.0000000  0.9999999 )
                  (  0.0000000 -1.0000000  0.0000000 )
                  (  1.0000001  0.0000000  0.0000000 )


      isym = 10     180 deg rotation - cart. axis [-1,0,1]       

 cryst.   s(10) = (     0          0         -1      )
                  (     0         -1          0      )
                  (    -1          0          0      )

 cart.    s(10) = (  0.0000000  0.0000000 -0.9999999 )
                  (  0.0000000 -1.0000000  0.0000000 )
                  ( -1.0000001  0.0000000  0.0000000 )


      isym = 11      90 deg rotation - cart. axis [0,1,0]        

 cryst.   s(11) = (     0          0         -1      )
                  (     0          1          0      )
                  (     1          0          0      )

 cart.    s(11) = (  0.0000000  0.0000000  0.9999999 )
                  (  0.0000000  1.0000000  0.0000000 )
                  ( -1.0000001  0.0000000  0.0000000 )


      isym = 12      90 deg rotation - cart. axis [0,-1,0]       

 cryst.   s(12) = (     0          0          1      )
                  (     0          1          0      )
                  (    -1          0          0      )

 cart.    s(12) = (  0.0000000  0.0000000 -0.9999999 )
                  (  0.0000000  1.0000000  0.0000000 )
                  (  1.0000001  0.0000000  0.0000000 )


      isym = 13     180 deg rotation - cart. axis [0,1,1]        

 cryst.   s(13) = (    -1          0          0      )
                  (     0          0          1      )
                  (     0          1          0      )

 cart.    s(13) = ( -1.0000000  0.0000000  0.0000000 )
                  (  0.0000000  0.0000000  1.0000000 )
                  (  0.0000000  1.0000000  0.0000000 )


      isym = 14     180 deg rotation - cart. axis [0,1,-1]       

 cryst.   s(14) = (    -1          0          0      )
                  (     0          0         -1      )
                  (     0         -1          0      )

 cart.    s(14) = ( -1.0000000  0.0000000  0.0000000 )
                  (  0.0000000  0.0000000 -1.0000000 )
                  (  0.0000000 -1.0000000  0.0000000 )


      isym = 15      90 deg rotation - cart. axis [-1,0,0]       

 cryst.   s(15) = (     1          0          0      )
                  (     0          0         -1      )
                  (     0          1          0      )

 cart.    s(15) = (  1.0000000  0.0000000  0.0000000 )
                  (  0.0000000  0.0000000  1.0000000 )
                  (  0.0000000 -1.0000000  0.0000000 )


      isym = 16      90 deg rotation - cart. axis [1,0,0]        

 cryst.   s(16) = (     1          0          0      )
                  (     0          0          1      )
                  (     0         -1          0      )

 cart.    s(16) = (  1.0000000  0.0000000  0.0000000 )
                  (  0.0000000  0.0000000 -1.0000000 )
                  (  0.0000000  1.0000000  0.0000000 )


      isym = 17     120 deg rotation - cart. axis [-1,-1,-1]     

 cryst.   s(17) = (     0          0          1      )
                  (     1          0          0      )
                  (     0          1          0      )

 cart.    s(17) = (  0.0000000  0.9999999  0.0000000 )
                  (  0.0000000  0.0000000  1.0000000 )
                  (  1.0000001  0.0000000  0.0000000 )


      isym = 18     120 deg rotation - cart. axis [-1,1,1]       

 cryst.   s(18) = (     0          0         -1      )
                  (    -1          0          0      )
                  (     0          1          0      )

 cart.    s(18) = (  0.0000000 -0.9999999  0.0000000 )
                  (  0.0000000  0.0000000  1.0000000 )
                  ( -1.0000001  0.0000000  0.0000000 )


      isym = 19     120 deg rotation - cart. axis [1,1,-1]       

 cryst.   s(19) = (     0          0         -1      )
                  (     1          0          0      )
                  (     0         -1          0      )

 cart.    s(19) = (  0.0000000  0.9999999  0.0000000 )
                  (  0.0000000  0.0000000 -1.0000000 )
                  ( -1.0000001  0.0000000  0.0000000 )


      isym = 20     120 deg rotation - cart. axis [1,-1,1]       

 cryst.   s(20) = (     0          0          1      )
                  (    -1          0          0      )
                  (     0         -1          0      )

 cart.    s(20) = (  0.0000000 -0.9999999  0.0000000 )
                  (  0.0000000  0.0000000 -1.0000000 )
                  (  1.0000001  0.0000000  0.0000000 )


      isym = 21     120 deg rotation - cart. axis [1,1,1]        

 cryst.   s(21) = (     0          1          0      )
                  (     0          0          1      )
                  (     1          0          0      )

 cart.    s(21) = (  0.0000000  0.0000000  0.9999999 )
                  (  1.0000001  0.0000000  0.0000000 )
                  (  0.0000000  1.0000000  0.0000000 )


      isym = 22     120 deg rotation - cart. axis [-1,1,-1]      

 cryst.   s(22) = (     0         -1          0      )
                  (     0          0         -1      )
                  (     1          0          0      )

 cart.    s(22) = (  0.0000000  0.0000000  0.9999999 )
                  ( -1.0000001  0.0000000  0.0000000 )
                  (  0.0000000 -1.0000000  0.0000000 )


      isym = 23     120 deg rotation - cart. axis [1,-1,-1]      

 cryst.   s(23) = (     0         -1          0      )
                  (     0          0          1      )
                  (    -1          0          0      )

 cart.    s(23) = (  0.0000000  0.0000000 -0.9999999 )
                  ( -1.0000001  0.0000000  0.0000000 )
                  (  0.0000000  1.0000000  0.0000000 )


      isym = 24     120 deg rotation - cart. axis [-1,-1,1]      

 cryst.   s(24) = (     0          1          0      )
                  (     0          0         -1      )
                  (    -1          0          0      )

 cart.    s(24) = (  0.0000000  0.0000000 -0.9999999 )
                  (  1.0000001  0.0000000  0.0000000 )
                  (  0.0000000 -1.0000000  0.0000000 )


      isym = 25     inversion                                    

 cryst.   s(25) = (    -1          0          0      )
                  (     0         -1          0      )
                  (     0          0         -1      )

 cart.    s(25) = ( -1.0000000  0.0000000  0.0000000 )
                  (  0.0000000 -1.0000000  0.0000000 )
                  (  0.0000000  0.0000000 -1.0000000 )


      isym = 26     inv. 180 deg rotation - cart. axis [0,0,1]   

 cryst.   s(26) = (     1          0          0      )
                  (     0          1          0      )
                  (     0          0         -1      )

 cart.    s(26) = (  1.0000000  0.0000000  0.0000000 )
                  (  0.0000000  1.0000000  0.0000000 )
                  (  0.0000000  0.0000000 -1.0000000 )


      isym = 27     inv. 180 deg rotation - cart. axis [0,1,0]   

 cryst.   s(27) = (     1          0          0      )
                  (     0         -1          0      )
                  (     0          0          1      )

 cart.    s(27) = (  1.0000000  0.0000000  0.0000000 )
                  (  0.0000000 -1.0000000  0.0000000 )
                  (  0.0000000  0.0000000  1.0000000 )


      isym = 28     inv. 180 deg rotation - cart. axis [1,0,0]   

 cryst.   s(28) = (    -1          0          0      )
                  (     0          1          0      )
                  (     0          0          1      )

 cart.    s(28) = ( -1.0000000  0.0000000  0.0000000 )
                  (  0.0000000  1.0000000  0.0000000 )
                  (  0.0000000  0.0000000  1.0000000 )


      isym = 29     inv. 180 deg rotation - cart. axis [1,1,0]   

 cryst.   s(29) = (     0         -1          0      )
                  (    -1          0          0      )
                  (     0          0          1      )

 cart.    s(29) = (  0.0000000 -0.9999999  0.0000000 )
                  ( -1.0000001  0.0000000  0.0000000 )
                  (  0.0000000  0.0000000  1.0000000 )


      isym = 30     inv. 180 deg rotation - cart. axis [1,-1,0]  

 cryst.   s(30) = (     0          1          0      )
                  (     1          0          0      )
                  (     0          0          1      )

 cart.    s(30) = (  0.0000000  0.9999999  0.0000000 )
                  (  1.0000001  0.0000000  0.0000000 )
                  (  0.0000000  0.0000000  1.0000000 )


      isym = 31     inv.  90 deg rotation - cart. axis [0,0,-1]  

 cryst.   s(31) = (     0          1          0      )
                  (    -1          0          0      )
                  (     0          0         -1      )

 cart.    s(31) = (  0.0000000 -0.9999999  0.0000000 )
                  (  1.0000001  0.0000000  0.0000000 )
                  (  0.0000000  0.0000000 -1.0000000 )


      isym = 32     inv.  90 deg rotation - cart. axis [0,0,1]   

 cryst.   s(32) = (     0         -1          0      )
                  (     1          0          0      )
                  (     0          0         -1      )

 cart.    s(32) = (  0.0000000  0.9999999  0.0000000 )
                  ( -1.0000001  0.0000000  0.0000000 )
                  (  0.0000000  0.0000000 -1.0000000 )


      isym = 33     inv. 180 deg rotation - cart. axis [1,0,1]   

 cryst.   s(33) = (     0          0         -1      )
                  (     0          1          0      )
                  (    -1          0          0      )

 cart.    s(33) = (  0.0000000  0.0000000 -0.9999999 )
                  (  0.0000000  1.0000000  0.0000000 )
                  ( -1.0000001  0.0000000  0.0000000 )


      isym = 34     inv. 180 deg rotation - cart. axis [-1,0,1]  

 cryst.   s(34) = (     0          0          1      )
                  (     0          1          0      )
                  (     1          0          0      )

 cart.    s(34) = (  0.0000000  0.0000000  0.9999999 )
                  (  0.0000000  1.0000000  0.0000000 )
                  (  1.0000001  0.0000000  0.0000000 )


      isym = 35     inv.  90 deg rotation - cart. axis [0,1,0]   

 cryst.   s(35) = (     0          0          1      )
                  (     0         -1          0      )
                  (    -1          0          0      )

 cart.    s(35) = (  0.0000000  0.0000000 -0.9999999 )
                  (  0.0000000 -1.0000000  0.0000000 )
                  (  1.0000001  0.0000000  0.0000000 )


      isym = 36     inv.  90 deg rotation - cart. axis [0,-1,0]  

 cryst.   s(36) = (     0          0         -1      )
                  (     0         -1          0      )
                  (     1          0          0      )

 cart.    s(36) = (  0.0000000  0.0000000  0.9999999 )
                  (  0.0000000 -1.0000000  0.0000000 )
                  ( -1.0000001  0.0000000  0.0000000 )


      isym = 37     inv. 180 deg rotation - cart. axis [0,1,1]   

 cryst.   s(37) = (     1          0          0      )
                  (     0          0         -1      )
                  (     0         -1          0      )

 cart.    s(37) = (  1.0000000  0.0000000  0.0000000 )
                  (  0.0000000  0.0000000 -1.0000000 )
                  (  0.0000000 -1.0000000  0.0000000 )


      isym = 38     inv. 180 deg rotation - cart. axis [0,1,-1]  

 cryst.   s(38) = (     1          0          0      )
                  (     0          0          1      )
                  (     0          1          0      )

 cart.    s(38) = (  1.0000000  0.0000000  0.0000000 )
                  (  0.0000000  0.0000000  1.0000000 )
                  (  0.0000000  1.0000000  0.0000000 )


      isym = 39     inv.  90 deg rotation - cart. axis [-1,0,0]  

 cryst.   s(39) = (    -1          0          0      )
                  (     0          0          1      )
                  (     0         -1          0      )

 cart.    s(39) = ( -1.0000000  0.0000000  0.0000000 )
                  (  0.0000000  0.0000000 -1.0000000 )
                  (  0.0000000  1.0000000  0.0000000 )


      isym = 40     inv.  90 deg rotation - cart. axis [1,0,0]   

 cryst.   s(40) = (    -1          0          0      )
                  (     0          0         -1      )
                  (     0          1          0      )

 cart.    s(40) = ( -1.0000000  0.0000000  0.0000000 )
                  (  0.0000000  0.0000000  1.0000000 )
                  (  0.0000000 -1.0000000  0.0000000 )


      isym = 41     inv. 120 deg rotation - cart. axis [-1,-1,-1]

 cryst.   s(41) = (     0          0         -1      )
                  (    -1          0          0      )
                  (     0         -1          0      )

 cart.    s(41) = (  0.0000000 -0.9999999  0.0000000 )
                  (  0.0000000  0.0000000 -1.0000000 )
                  ( -1.0000001  0.0000000  0.0000000 )


      isym = 42     inv. 120 deg rotation - cart. axis [-1,1,1]  

 cryst.   s(42) = (     0          0          1      )
                  (     1          0          0      )
                  (     0         -1          0      )

 cart.    s(42) = (  0.0000000  0.9999999  0.0000000 )
                  (  0.0000000  0.0000000 -1.0000000 )
                  (  1.0000001  0.0000000  0.0000000 )


      isym = 43     inv. 120 deg rotation - cart. axis [1,1,-1]  

 cryst.   s(43) = (     0          0          1      )
                  (    -1          0          0      )
                  (     0          1          0      )

 cart.    s(43) = (  0.0000000 -0.9999999  0.0000000 )
                  (  0.0000000  0.0000000  1.0000000 )
                  (  1.0000001  0.0000000  0.0000000 )


      isym = 44     inv. 120 deg rotation - cart. axis [1,-1,1]  

 cryst.   s(44) = (     0          0         -1      )
                  (     1          0          0      )
                  (     0          1          0      )

 cart.    s(44) = (  0.0000000  0.9999999  0.0000000 )
                  (  0.0000000  0.0000000  1.0000000 )
                  ( -1.0000001  0.0000000  0.0000000 )


      isym = 45     inv. 120 deg rotation - cart. axis [1,1,1]   

 cryst.   s(45) = (     0         -1          0      )
                  (     0          0         -1      )
                  (    -1          0          0      )

 cart.    s(45) = (  0.0000000  0.0000000 -0.9999999 )
                  ( -1.0000001  0.0000000  0.0000000 )
                  (  0.0000000 -1.0000000  0.0000000 )


      isym = 46     inv. 120 deg rotation - cart. axis [-1,1,-1] 

 cryst.   s(46) = (     0          1          0      )
                  (     0          0          1      )
                  (    -1          0          0      )

 cart.    s(46) = (  0.0000000  0.0000000 -0.9999999 )
                  (  1.0000001  0.0000000  0.0000000 )
                  (  0.0000000  1.0000000  0.0000000 )


      isym = 47     inv. 120 deg rotation - cart. axis [1,-1,-1] 

 cryst.   s(47) = (     0          1          0      )
                  (     0          0         -1      )
                  (     1          0          0      )

 cart.    s(47) = (  0.0000000  0.0000000  0.9999999 )
                  (  1.0000001  0.0000000  0.0000000 )
                  (  0.0000000 -1.0000000  0.0000000 )


      isym = 48     inv. 120 deg rotation - cart. axis [-1,-1,1] 

 cryst.   s(48) = (     0         -1          0      )
                  (     0          0          1      )
                  (     1          0          0      )

 cart.    s(48) = (  0.0000000  0.0000000  0.9999999 )
                  ( -1.0000001  0.0000000  0.0000000 )
                  (  0.0000000  1.0000000  0.0000000 )


   Cartesian axes

     site n.     atom                  positions (alat units)
         1           U   tau(   1) = (   0.0000000   0.0000000   0.0000000  )
         2           U   tau(   2) = (   0.5000000   0.5000000   0.0000000  )
         3           U   tau(   3) = (   0.5000000   0.0000000   0.5000000  )
         4           U   tau(   4) = (   0.0000000   0.5000000   0.5000000  )

   Crystallographic axes

     site n.     atom                  positions (cryst. coord.)
         1           U   tau(   1) = (  0.0000000  0.0000000  0.0000000  )
         2           U   tau(   2) = (  0.5000000  0.5000000  0.0000000  )
         3           U   tau(   3) = (  0.5000000  0.0000000  0.5000000  )
         4           U   tau(   4) = (  0.0000000  0.5000000  0.5000000  )

     number of k points=     4  Marzari-Vanderbilt smearing, width (Ry)=  0.0500
                       cart. coord. in units 2pi/alat
        k(    1) = (   0.0000000   0.0000000   0.0000000), wk =   0.0370370
        k(    2) = (   0.0000000   0.0000000   0.3333333), wk =   0.2222222
        k(    3) = (   0.0000000   0.3333333   0.3333333), wk =   0.4444444
        k(    4) = (   0.3333333   0.3333333   0.3333333), wk =   0.2962963

                       cryst. coord.
        k(    1) = (   0.0000000   0.0000000   0.0000000), wk =   0.0370370
        k(    2) = (   0.0000000   0.0000000   0.3333333), wk =   0.2222222
        k(    3) = (   0.0000000   0.3333333   0.3333333), wk =   0.4444444
        k(    4) = (   0.3333333   0.3333333   0.3333333), wk =   0.2962963

     Dense  grid:   201485 G-vectors     FFT dimensions: (  75,  75,  75)

     Smooth grid:    71327 G-vectors     FFT dimensions: (  54,  54,  54)

     Dynamical RAM for                 wfc:       0.27 MB

     Dynamical RAM for     wfc (w. buffer):       2.44 MB

     Dynamical RAM for           str. fact:       0.19 MB

     Dynamical RAM for           local pot:       0.00 MB

     Dynamical RAM for          nlocal pot:       1.09 MB

     Dynamical RAM for                qrad:       5.25 MB

     Dynamical RAM for          rho,v,vnew:       2.44 MB

     Dynamical RAM for               rhoin:       0.81 MB

     Dynamical RAM for            rho*nmix:       6.15 MB

     Dynamical RAM for           G-vectors:       0.75 MB

     Dynamical RAM for          h,s,v(r/c):       0.05 MB

     Dynamical RAM for          <psi|beta>:       0.06 MB

     Dynamical RAM for      wfcinit/wfcrot:       0.57 MB

     Dynamical RAM for           addusdens:     107.61 MB

     Dynamical RAM for          addusforce:     108.86 MB

     Dynamical RAM for         addusstress:     112.12 MB

     Estimated static dynamical RAM per process >      14.65 MB

     Estimated max dynamical RAM per process >     132.92 MB

     Estimated total dynamical RAM >       2.08 GB
     Generating pointlists ...
     new r_m :   0.2917 (alat units)  2.4436 (a.u.) for type    1

     Initial potential from superposition of free atoms

     starting charge   55.98204, renormalised to   56.00000
     Starting wfcs are random

     total cpu time spent up to now is        3.3 secs

     Self-consistent Calculation

     iteration #  1     ecut=    93.00 Ry     beta= 0.70
     CG style diagonalization

---- Real-time Memory Report at c_bands before calling an iterative solver
           144 MiB given to the printing process from OS
             0 MiB allocation reported by mallinfo(arena+hblkhd)
          6081 MiB available memory on the node where the printing process lives
------------------
     ethr =  1.00E-02,  avg # of iterations =  9.0

     total cpu time spent up to now is       10.7 secs

     total energy              =    -516.20872764 Ry
     estimated scf accuracy    <       1.37501164 Ry

     total magnetization       =     3.73 Bohr mag/cell
     absolute magnetization    =     3.73 Bohr mag/cell

     iteration #  2     ecut=    93.00 Ry     beta= 0.70
     CG style diagonalization

---- Real-time Memory Report at c_bands before calling an iterative solver
           150 MiB given to the printing process from OS
             0 MiB allocation reported by mallinfo(arena+hblkhd)
          5959 MiB available memory on the node where the printing process lives
------------------
     c_bands:  1 eigenvalues not converged
     ethr =  2.46E-03,  avg # of iterations =  6.2

     total cpu time spent up to now is       16.4 secs

     total energy              =    -516.45820081 Ry
     estimated scf accuracy    <       4.97845105 Ry

     total magnetization       =     3.83 Bohr mag/cell
     absolute magnetization    =     3.83 Bohr mag/cell

     iteration #  3     ecut=    93.00 Ry     beta= 0.70
     CG style diagonalization

---- Real-time Memory Report at c_bands before calling an iterative solver
           150 MiB given to the printing process from OS
             0 MiB allocation reported by mallinfo(arena+hblkhd)
          5957 MiB available memory on the node where the printing process lives
------------------
     ethr =  2.46E-03,  avg # of iterations =  4.8

     total cpu time spent up to now is       21.2 secs

     total energy              =    -517.40676592 Ry
     estimated scf accuracy    <       0.01126315 Ry

     total magnetization       =     2.50 Bohr mag/cell
     absolute magnetization    =     2.51 Bohr mag/cell

     iteration #  4     ecut=    93.00 Ry     beta= 0.70
     CG style diagonalization

---- Real-time Memory Report at c_bands before calling an iterative solver
           150 MiB given to the printing process from OS
             0 MiB allocation reported by mallinfo(arena+hblkhd)
          5956 MiB available memory on the node where the printing process lives
------------------
     c_bands:  1 eigenvalues not converged
     c_bands:  5 eigenvalues not converged
     c_bands:  1 eigenvalues not converged
     c_bands:  5 eigenvalues not converged
     c_bands:  3 eigenvalues not converged
     ethr =  2.01E-05,  avg # of iterations = 13.5

     total cpu time spent up to now is       30.7 secs

     total energy              =    -517.45684143 Ry
     estimated scf accuracy    <       0.98197668 Ry

     total magnetization       =     2.47 Bohr mag/cell
     absolute magnetization    =     2.49 Bohr mag/cell

     iteration #  5     ecut=    93.00 Ry     beta= 0.70
     CG style diagonalization

---- Real-time Memory Report at c_bands before calling an iterative solver
           150 MiB given to the printing process from OS
             0 MiB allocation reported by mallinfo(arena+hblkhd)
          5954 MiB available memory on the node where the printing process lives
------------------
     c_bands:  1 eigenvalues not converged
     c_bands:  4 eigenvalues not converged
     c_bands:  4 eigenvalues not converged
     c_bands:  3 eigenvalues not converged
     ethr =  2.01E-05,  avg # of iterations =  6.9

     total cpu time spent up to now is       36.7 secs

     total energy              =    -517.49201303 Ry
     estimated scf accuracy    <       0.01781866 Ry

     total magnetization       =     2.46 Bohr mag/cell
     absolute magnetization    =     2.48 Bohr mag/cell

     iteration #  6     ecut=    93.00 Ry     beta= 0.70
     CG style diagonalization

---- Real-time Memory Report at c_bands before calling an iterative solver
           151 MiB given to the printing process from OS
             0 MiB allocation reported by mallinfo(arena+hblkhd)
          5952 MiB available memory on the node where the printing process lives
------------------
     c_bands:  1 eigenvalues not converged
     ethr =  2.01E-05,  avg # of iterations =  3.5

     total cpu time spent up to now is       40.9 secs

     total energy              =    -517.49307706 Ry
     estimated scf accuracy    <       0.00633225 Ry

     total magnetization       =     2.30 Bohr mag/cell
     absolute magnetization    =     2.33 Bohr mag/cell

     iteration #  7     ecut=    93.00 Ry     beta= 0.70
     CG style diagonalization

---- Real-time Memory Report at c_bands before calling an iterative solver
           151 MiB given to the printing process from OS
             0 MiB allocation reported by mallinfo(arena+hblkhd)
          5938 MiB available memory on the node where the printing process lives
------------------
     c_bands:  1 eigenvalues not converged
     ethr =  1.13E-05,  avg # of iterations =  3.9

     total cpu time spent up to now is       45.4 secs

     total energy              =    -517.49422592 Ry
     estimated scf accuracy    <       0.00022558 Ry

     total magnetization       =     2.16 Bohr mag/cell
     absolute magnetization    =     2.20 Bohr mag/cell

     iteration #  8     ecut=    93.00 Ry     beta= 0.70
     CG style diagonalization

---- Real-time Memory Report at c_bands before calling an iterative solver
           151 MiB given to the printing process from OS
             0 MiB allocation reported by mallinfo(arena+hblkhd)
          5929 MiB available memory on the node where the printing process lives
------------------
     c_bands:  1 eigenvalues not converged
     c_bands:  2 eigenvalues not converged
     c_bands:  3 eigenvalues not converged
     c_bands:  1 eigenvalues not converged
     c_bands:  1 eigenvalues not converged
     c_bands:  4 eigenvalues not converged
     c_bands:  2 eigenvalues not converged
     ethr =  4.03E-07,  avg # of iterations =  7.6

     total cpu time spent up to now is       51.8 secs

     total energy              =    -517.49507047 Ry
     estimated scf accuracy    <       0.00376549 Ry

     total magnetization       =     2.12 Bohr mag/cell
     absolute magnetization    =     2.17 Bohr mag/cell

     iteration #  9     ecut=    93.00 Ry     beta= 0.70
     CG style diagonalization

---- Real-time Memory Report at c_bands before calling an iterative solver
           152 MiB given to the printing process from OS
             0 MiB allocation reported by mallinfo(arena+hblkhd)
          5929 MiB available memory on the node where the printing process lives
------------------
     c_bands:  1 eigenvalues not converged
     c_bands:  1 eigenvalues not converged
     c_bands:  2 eigenvalues not converged
     c_bands:  1 eigenvalues not converged
     c_bands:  1 eigenvalues not converged
     ethr =  4.03E-07,  avg # of iterations =  3.7

     total cpu time spent up to now is       56.1 secs

     total energy              =    -517.49541486 Ry
     estimated scf accuracy    <       0.00185578 Ry

     total magnetization       =     2.12 Bohr mag/cell
     absolute magnetization    =     2.18 Bohr mag/cell

     iteration # 10     ecut=    93.00 Ry     beta= 0.70
     CG style diagonalization

---- Real-time Memory Report at c_bands before calling an iterative solver
           152 MiB given to the printing process from OS
             0 MiB allocation reported by mallinfo(arena+hblkhd)
          5927 MiB available memory on the node where the printing process lives
------------------
     c_bands:  2 eigenvalues not converged
     c_bands:  1 eigenvalues not converged
     c_bands:  1 eigenvalues not converged
     ethr =  4.03E-07,  avg # of iterations =  3.6

     total cpu time spent up to now is       60.3 secs

     total energy              =    -517.49571886 Ry
     estimated scf accuracy    <       0.00153297 Ry

     total magnetization       =     2.14 Bohr mag/cell
     absolute magnetization    =     2.20 Bohr mag/cell

     iteration # 11     ecut=    93.00 Ry     beta= 0.70
     CG style diagonalization

---- Real-time Memory Report at c_bands before calling an iterative solver
           152 MiB given to the printing process from OS
             0 MiB allocation reported by mallinfo(arena+hblkhd)
          5928 MiB available memory on the node where the printing process lives
------------------
     c_bands:  1 eigenvalues not converged
     c_bands:  1 eigenvalues not converged
     ethr =  4.03E-07,  avg # of iterations =  3.3

     total cpu time spent up to now is       64.3 secs

     total energy              =    -517.49581978 Ry
     estimated scf accuracy    <       0.00172937 Ry

     total magnetization       =     2.22 Bohr mag/cell
     absolute magnetization    =     2.28 Bohr mag/cell

     iteration # 12     ecut=    93.00 Ry     beta= 0.70
     CG style diagonalization

---- Real-time Memory Report at c_bands before calling an iterative solver
           152 MiB given to the printing process from OS
             0 MiB allocation reported by mallinfo(arena+hblkhd)
          5927 MiB available memory on the node where the printing process lives
------------------
     c_bands:  1 eigenvalues not converged
     c_bands:  1 eigenvalues not converged
     ethr =  4.03E-07,  avg # of iterations =  3.5

     total cpu time spent up to now is       68.5 secs

     total energy              =    -517.49588126 Ry
     estimated scf accuracy    <       0.00118026 Ry

     total magnetization       =     2.26 Bohr mag/cell
     absolute magnetization    =     2.33 Bohr mag/cell

     iteration # 13     ecut=    93.00 Ry     beta= 0.70
     CG style diagonalization

---- Real-time Memory Report at c_bands before calling an iterative solver
           153 MiB given to the printing process from OS
             0 MiB allocation reported by mallinfo(arena+hblkhd)
          5930 MiB available memory on the node where the printing process lives
------------------
     c_bands:  2 eigenvalues not converged
     c_bands:  1 eigenvalues not converged
     ethr =  4.03E-07,  avg # of iterations =  3.3

     total cpu time spent up to now is       72.5 secs

     total energy              =    -517.49587498 Ry
     estimated scf accuracy    <       0.00094319 Ry

     total magnetization       =     2.30 Bohr mag/cell
     absolute magnetization    =     2.37 Bohr mag/cell

     iteration # 14     ecut=    93.00 Ry     beta= 0.70
     CG style diagonalization

---- Real-time Memory Report at c_bands before calling an iterative solver
           153 MiB given to the printing process from OS
             0 MiB allocation reported by mallinfo(arena+hblkhd)
          5925 MiB available memory on the node where the printing process lives
------------------
     c_bands:  1 eigenvalues not converged
     ethr =  4.03E-07,  avg # of iterations =  3.5

     total cpu time spent up to now is       76.5 secs

     total energy              =    -517.49592640 Ry
     estimated scf accuracy    <       0.00047824 Ry

     total magnetization       =     2.38 Bohr mag/cell
     absolute magnetization    =     2.44 Bohr mag/cell

     iteration # 15     ecut=    93.00 Ry     beta= 0.70
     CG style diagonalization

---- Real-time Memory Report at c_bands before calling an iterative solver
           153 MiB given to the printing process from OS
             0 MiB allocation reported by mallinfo(arena+hblkhd)
          5930 MiB available memory on the node where the printing process lives
------------------
     c_bands:  1 eigenvalues not converged
     ethr =  4.03E-07,  avg # of iterations =  3.1

     total cpu time spent up to now is       80.4 secs

     total energy              =    -517.49591885 Ry
     estimated scf accuracy    <       0.00044201 Ry

     total magnetization       =     2.40 Bohr mag/cell
     absolute magnetization    =     2.46 Bohr mag/cell

     iteration # 16     ecut=    93.00 Ry     beta= 0.70
     CG style diagonalization

---- Real-time Memory Report at c_bands before calling an iterative solver
           153 MiB given to the printing process from OS
             0 MiB allocation reported by mallinfo(arena+hblkhd)
          5927 MiB available memory on the node where the printing process lives
------------------
     c_bands:  1 eigenvalues not converged
     ethr =  4.03E-07,  avg # of iterations =  3.2

     total cpu time spent up to now is       84.3 secs

     total energy              =    -517.49579812 Ry
     estimated scf accuracy    <       0.00030393 Ry

     total magnetization       =     2.47 Bohr mag/cell
     absolute magnetization    =     2.54 Bohr mag/cell

     iteration # 17     ecut=    93.00 Ry     beta= 0.70
     CG style diagonalization

---- Real-time Memory Report at c_bands before calling an iterative solver
           153 MiB given to the printing process from OS
             0 MiB allocation reported by mallinfo(arena+hblkhd)
          5930 MiB available memory on the node where the printing process lives
------------------
     c_bands:  1 eigenvalues not converged
     ethr =  4.03E-07,  avg # of iterations =  4.8

     total cpu time spent up to now is       89.1 secs

     total energy              =    -517.49601652 Ry
     estimated scf accuracy    <       0.00035438 Ry

     total magnetization       =     2.65 Bohr mag/cell
     absolute magnetization    =     2.72 Bohr mag/cell

     iteration # 18     ecut=    93.00 Ry     beta= 0.70
     CG style diagonalization

---- Real-time Memory Report at c_bands before calling an iterative solver
           153 MiB given to the printing process from OS
             0 MiB allocation reported by mallinfo(arena+hblkhd)
          5933 MiB available memory on the node where the printing process lives
------------------
     c_bands:  1 eigenvalues not converged
     ethr =  4.03E-07,  avg # of iterations =  3.1

     total cpu time spent up to now is       93.0 secs

     total energy              =    -517.49603531 Ry
     estimated scf accuracy    <       0.00025884 Ry

     total magnetization       =     2.61 Bohr mag/cell
     absolute magnetization    =     2.68 Bohr mag/cell

     iteration # 19     ecut=    93.00 Ry     beta= 0.70
     CG style diagonalization

---- Real-time Memory Report at c_bands before calling an iterative solver
           153 MiB given to the printing process from OS
             0 MiB allocation reported by mallinfo(arena+hblkhd)
          5933 MiB available memory on the node where the printing process lives
------------------
     c_bands:  1 eigenvalues not converged
     ethr =  4.03E-07,  avg # of iterations =  3.1

     total cpu time spent up to now is       96.8 secs

     total energy              =    -517.49604490 Ry
     estimated scf accuracy    <       0.00033618 Ry

     total magnetization       =     2.63 Bohr mag/cell
     absolute magnetization    =     2.70 Bohr mag/cell

     iteration # 20     ecut=    93.00 Ry     beta= 0.70
     CG style diagonalization

---- Real-time Memory Report at c_bands before calling an iterative solver
           153 MiB given to the printing process from OS
             0 MiB allocation reported by mallinfo(arena+hblkhd)
          5932 MiB available memory on the node where the printing process lives
------------------
     ethr =  4.03E-07,  avg # of iterations =  3.0

     total cpu time spent up to now is      100.5 secs

     total energy              =    -517.49604565 Ry
     estimated scf accuracy    <       0.00041212 Ry

     total magnetization       =     2.62 Bohr mag/cell
     absolute magnetization    =     2.70 Bohr mag/cell

     iteration # 21     ecut=    93.00 Ry     beta= 0.70
     CG style diagonalization

---- Real-time Memory Report at c_bands before calling an iterative solver
           153 MiB given to the printing process from OS
             0 MiB allocation reported by mallinfo(arena+hblkhd)
          5936 MiB available memory on the node where the printing process lives
------------------
     ethr =  4.03E-07,  avg # of iterations =  3.0

     total cpu time spent up to now is      104.3 secs

     total energy              =    -517.49602975 Ry
     estimated scf accuracy    <       0.00042599 Ry

     total magnetization       =     2.62 Bohr mag/cell
     absolute magnetization    =     2.70 Bohr mag/cell

     iteration # 22     ecut=    93.00 Ry     beta= 0.70
     CG style diagonalization

---- Real-time Memory Report at c_bands before calling an iterative solver
           153 MiB given to the printing process from OS
             0 MiB allocation reported by mallinfo(arena+hblkhd)
          5933 MiB available memory on the node where the printing process lives
------------------
     ethr =  4.03E-07,  avg # of iterations =  3.0

     total cpu time spent up to now is      108.1 secs

     total energy              =    -517.49598607 Ry
     estimated scf accuracy    <       0.00028206 Ry

     total magnetization       =     2.62 Bohr mag/cell
     absolute magnetization    =     2.70 Bohr mag/cell

     iteration # 23     ecut=    93.00 Ry     beta= 0.70
     CG style diagonalization

---- Real-time Memory Report at c_bands before calling an iterative solver
           153 MiB given to the printing process from OS
             0 MiB allocation reported by mallinfo(arena+hblkhd)
          5934 MiB available memory on the node where the printing process lives
------------------
     c_bands:  1 eigenvalues not converged
     ethr =  4.03E-07,  avg # of iterations =  4.4

     total cpu time spent up to now is      112.7 secs

     total energy              =    -517.49603614 Ry
     estimated scf accuracy    <       0.00066253 Ry

     total magnetization       =     2.63 Bohr mag/cell
     absolute magnetization    =     2.71 Bohr mag/cell

     iteration # 24     ecut=    93.00 Ry     beta= 0.70
     CG style diagonalization

---- Real-time Memory Report at c_bands before calling an iterative solver
           153 MiB given to the printing process from OS
             0 MiB allocation reported by mallinfo(arena+hblkhd)
          5933 MiB available memory on the node where the printing process lives
------------------
     c_bands:  1 eigenvalues not converged
     ethr =  4.03E-07,  avg # of iterations =  3.1

     total cpu time spent up to now is      116.5 secs

     total energy              =    -517.49602239 Ry
     estimated scf accuracy    <       0.00048445 Ry

     total magnetization       =     2.67 Bohr mag/cell
     absolute magnetization    =     2.75 Bohr mag/cell

     iteration # 25     ecut=    93.00 Ry     beta= 0.70
     CG style diagonalization

---- Real-time Memory Report at c_bands before calling an iterative solver
           153 MiB given to the printing process from OS
             0 MiB allocation reported by mallinfo(arena+hblkhd)
          5935 MiB available memory on the node where the printing process lives
------------------
     ethr =  4.03E-07,  avg # of iterations =  3.0

     total cpu time spent up to now is      120.3 secs

     total energy              =    -517.49601307 Ry
     estimated scf accuracy    <       0.00027280 Ry

     total magnetization       =     2.67 Bohr mag/cell
     absolute magnetization    =     2.75 Bohr mag/cell

     iteration # 26     ecut=    93.00 Ry     beta= 0.70
     CG style diagonalization

---- Real-time Memory Report at c_bands before calling an iterative solver
           153 MiB given to the printing process from OS
             0 MiB allocation reported by mallinfo(arena+hblkhd)
          5935 MiB available memory on the node where the printing process lives
------------------
     ethr =  4.03E-07,  avg # of iterations =  3.0

     total cpu time spent up to now is      124.3 secs

     total energy              =    -517.49600890 Ry
     estimated scf accuracy    <       0.00013581 Ry

     total magnetization       =     2.68 Bohr mag/cell
     absolute magnetization    =     2.76 Bohr mag/cell

     iteration # 27     ecut=    93.00 Ry     beta= 0.70
     CG style diagonalization

---- Real-time Memory Report at c_bands before calling an iterative solver
           153 MiB given to the printing process from OS
             0 MiB allocation reported by mallinfo(arena+hblkhd)
          5936 MiB available memory on the node where the printing process lives
------------------
     ethr =  2.43E-07,  avg # of iterations =  4.1

     total cpu time spent up to now is      128.6 secs

     total energy              =    -517.49604705 Ry
     estimated scf accuracy    <       0.00019315 Ry

     total magnetization       =     2.69 Bohr mag/cell
     absolute magnetization    =     2.77 Bohr mag/cell

     iteration # 28     ecut=    93.00 Ry     beta= 0.70
     CG style diagonalization

---- Real-time Memory Report at c_bands before calling an iterative solver
           153 MiB given to the printing process from OS
             0 MiB allocation reported by mallinfo(arena+hblkhd)
          5936 MiB available memory on the node where the printing process lives
------------------
     ethr =  2.43E-07,  avg # of iterations =  3.0

     total cpu time spent up to now is      132.4 secs

     total energy              =    -517.49604783 Ry
     estimated scf accuracy    <       0.00020614 Ry

     total magnetization       =     2.69 Bohr mag/cell
     absolute magnetization    =     2.77 Bohr mag/cell

     iteration # 29     ecut=    93.00 Ry     beta= 0.70
     CG style diagonalization

---- Real-time Memory Report at c_bands before calling an iterative solver
           153 MiB given to the printing process from OS
             0 MiB allocation reported by mallinfo(arena+hblkhd)
          5939 MiB available memory on the node where the printing process lives
------------------
     ethr =  2.43E-07,  avg # of iterations =  3.0

     total cpu time spent up to now is      136.2 secs

     total energy              =    -517.49605457 Ry
     estimated scf accuracy    <       0.00021402 Ry

     total magnetization       =     2.69 Bohr mag/cell
     absolute magnetization    =     2.77 Bohr mag/cell

     iteration # 30     ecut=    93.00 Ry     beta= 0.70
     CG style diagonalization

---- Real-time Memory Report at c_bands before calling an iterative solver
           153 MiB given to the printing process from OS
             0 MiB allocation reported by mallinfo(arena+hblkhd)
          5937 MiB available memory on the node where the printing process lives
------------------
     ethr =  2.43E-07,  avg # of iterations =  3.0

     total cpu time spent up to now is      140.0 secs

     total energy              =    -517.49605948 Ry
     estimated scf accuracy    <       0.00027738 Ry

     total magnetization       =     2.70 Bohr mag/cell
     absolute magnetization    =     2.78 Bohr mag/cell

     iteration # 31     ecut=    93.00 Ry     beta= 0.70
     CG style diagonalization

---- Real-time Memory Report at c_bands before calling an iterative solver
           153 MiB given to the printing process from OS
             0 MiB allocation reported by mallinfo(arena+hblkhd)
          5936 MiB available memory on the node where the printing process lives
------------------
     ethr =  2.43E-07,  avg # of iterations =  3.0

     total cpu time spent up to now is      143.7 secs

     total energy              =    -517.49605352 Ry
     estimated scf accuracy    <       0.00032351 Ry

     total magnetization       =     2.70 Bohr mag/cell
     absolute magnetization    =     2.78 Bohr mag/cell

     iteration # 32     ecut=    93.00 Ry     beta= 0.70
     CG style diagonalization

---- Real-time Memory Report at c_bands before calling an iterative solver
           154 MiB given to the printing process from OS
             0 MiB allocation reported by mallinfo(arena+hblkhd)
          5935 MiB available memory on the node where the printing process lives
------------------
     ethr =  2.43E-07,  avg # of iterations =  3.0

     total cpu time spent up to now is      147.5 secs

     total energy              =    -517.49605366 Ry
     estimated scf accuracy    <       0.00027529 Ry

     total magnetization       =     2.70 Bohr mag/cell
     absolute magnetization    =     2.78 Bohr mag/cell

     iteration # 33     ecut=    93.00 Ry     beta= 0.70
     CG style diagonalization

---- Real-time Memory Report at c_bands before calling an iterative solver
           154 MiB given to the printing process from OS
             0 MiB allocation reported by mallinfo(arena+hblkhd)
          5937 MiB available memory on the node where the printing process lives
------------------
     ethr =  2.43E-07,  avg # of iterations =  3.0

     total cpu time spent up to now is      151.2 secs

     total energy              =    -517.49605406 Ry
     estimated scf accuracy    <       0.00027570 Ry

     total magnetization       =     2.70 Bohr mag/cell
     absolute magnetization    =     2.78 Bohr mag/cell

     iteration # 34     ecut=    93.00 Ry     beta= 0.70
     CG style diagonalization

---- Real-time Memory Report at c_bands before calling an iterative solver
           154 MiB given to the printing process from OS
             0 MiB allocation reported by mallinfo(arena+hblkhd)
          5936 MiB available memory on the node where the printing process lives
------------------
     ethr =  2.43E-07,  avg # of iterations =  3.0

     total cpu time spent up to now is      155.0 secs

     total energy              =    -517.49605251 Ry
     estimated scf accuracy    <       0.00027905 Ry

     total magnetization       =     2.70 Bohr mag/cell
     absolute magnetization    =     2.78 Bohr mag/cell

     iteration # 35     ecut=    93.00 Ry     beta= 0.70
     CG style diagonalization

---- Real-time Memory Report at c_bands before calling an iterative solver
           154 MiB given to the printing process from OS
             0 MiB allocation reported by mallinfo(arena+hblkhd)
          5936 MiB available memory on the node where the printing process lives
------------------
     ethr =  2.43E-07,  avg # of iterations =  3.0

     total cpu time spent up to now is      158.8 secs

     total energy              =    -517.49599269 Ry
     estimated scf accuracy    <       0.00026702 Ry

     total magnetization       =     2.70 Bohr mag/cell
     absolute magnetization    =     2.78 Bohr mag/cell

     iteration # 36     ecut=    93.00 Ry     beta= 0.70
     CG style diagonalization

---- Real-time Memory Report at c_bands before calling an iterative solver
           154 MiB given to the printing process from OS
             0 MiB allocation reported by mallinfo(arena+hblkhd)
          5936 MiB available memory on the node where the printing process lives
------------------
     c_bands:  1 eigenvalues not converged
     ethr =  2.43E-07,  avg # of iterations =  4.8

     total cpu time spent up to now is      163.8 secs

     total energy              =    -517.49599880 Ry
     estimated scf accuracy    <       0.00102439 Ry

     total magnetization       =     2.67 Bohr mag/cell
     absolute magnetization    =     2.75 Bohr mag/cell

     iteration # 37     ecut=    93.00 Ry     beta= 0.70
     CG style diagonalization

---- Real-time Memory Report at c_bands before calling an iterative solver
           154 MiB given to the printing process from OS
             0 MiB allocation reported by mallinfo(arena+hblkhd)
          5925 MiB available memory on the node where the printing process lives
------------------
     c_bands:  1 eigenvalues not converged
     ethr =  2.43E-07,  avg # of iterations =  4.3

     total cpu time spent up to now is      168.3 secs

     total energy              =    -517.49604040 Ry
     estimated scf accuracy    <       0.00001741 Ry

     total magnetization       =     2.70 Bohr mag/cell
     absolute magnetization    =     2.77 Bohr mag/cell

     iteration # 38     ecut=    93.00 Ry     beta= 0.70
     CG style diagonalization

---- Real-time Memory Report at c_bands before calling an iterative solver
           154 MiB given to the printing process from OS
             0 MiB allocation reported by mallinfo(arena+hblkhd)
          5927 MiB available memory on the node where the printing process lives
------------------
     c_bands:  1 eigenvalues not converged
     c_bands:  1 eigenvalues not converged
     c_bands:  1 eigenvalues not converged
     c_bands:  1 eigenvalues not converged
     ethr =  3.11E-08,  avg # of iterations =  4.5

     total cpu time spent up to now is      173.0 secs

     total energy              =    -517.49604620 Ry
     estimated scf accuracy    <       0.00000603 Ry

     total magnetization       =     2.69 Bohr mag/cell
     absolute magnetization    =     2.77 Bohr mag/cell

     iteration # 39     ecut=    93.00 Ry     beta= 0.70
     CG style diagonalization

---- Real-time Memory Report at c_bands before calling an iterative solver
           154 MiB given to the printing process from OS
             0 MiB allocation reported by mallinfo(arena+hblkhd)
          5928 MiB available memory on the node where the printing process lives
------------------
     c_bands:  1 eigenvalues not converged
     c_bands:  1 eigenvalues not converged
     c_bands:  1 eigenvalues not converged
     ethr =  1.08E-08,  avg # of iterations =  3.6

     total cpu time spent up to now is      177.1 secs

     total energy              =    -517.49604709 Ry
     estimated scf accuracy    <       0.00000526 Ry

     total magnetization       =     2.69 Bohr mag/cell
     absolute magnetization    =     2.77 Bohr mag/cell

     iteration # 40     ecut=    93.00 Ry     beta= 0.70
     CG style diagonalization

---- Real-time Memory Report at c_bands before calling an iterative solver
           154 MiB given to the printing process from OS
             0 MiB allocation reported by mallinfo(arena+hblkhd)
          5929 MiB available memory on the node where the printing process lives
------------------
     c_bands:  1 eigenvalues not converged
     c_bands:  1 eigenvalues not converged
     ethr =  9.39E-09,  avg # of iterations =  3.2

     total cpu time spent up to now is      180.9 secs

     total energy              =    -517.49604702 Ry
     estimated scf accuracy    <       0.00000526 Ry

     total magnetization       =     2.69 Bohr mag/cell
     absolute magnetization    =     2.77 Bohr mag/cell

     iteration # 41     ecut=    93.00 Ry     beta= 0.70
     CG style diagonalization

---- Real-time Memory Report at c_bands before calling an iterative solver
           154 MiB given to the printing process from OS
             0 MiB allocation reported by mallinfo(arena+hblkhd)
          5930 MiB available memory on the node where the printing process lives
------------------
     c_bands:  1 eigenvalues not converged
     c_bands:  1 eigenvalues not converged
     ethr =  9.39E-09,  avg # of iterations =  3.4

     total cpu time spent up to now is      184.9 secs

     total energy              =    -517.49604763 Ry
     estimated scf accuracy    <       0.00000060 Ry

     total magnetization       =     2.69 Bohr mag/cell
     absolute magnetization    =     2.77 Bohr mag/cell

     iteration # 42     ecut=    93.00 Ry     beta= 0.70
     CG style diagonalization

---- Real-time Memory Report at c_bands before calling an iterative solver
           154 MiB given to the printing process from OS
             0 MiB allocation reported by mallinfo(arena+hblkhd)
          5930 MiB available memory on the node where the printing process lives
------------------
     c_bands:  2 eigenvalues not converged
     c_bands:  1 eigenvalues not converged
     c_bands:  1 eigenvalues not converged
     c_bands:  2 eigenvalues not converged
     c_bands:  2 eigenvalues not converged
     ethr =  1.08E-09,  avg # of iterations =  6.0

     total cpu time spent up to now is      190.4 secs

     total energy              =    -517.49604877 Ry
     estimated scf accuracy    <       0.00000070 Ry

     total magnetization       =     2.69 Bohr mag/cell
     absolute magnetization    =     2.77 Bohr mag/cell

     iteration # 43     ecut=    93.00 Ry     beta= 0.70
     CG style diagonalization

---- Real-time Memory Report at c_bands before calling an iterative solver
           154 MiB given to the printing process from OS
             0 MiB allocation reported by mallinfo(arena+hblkhd)
          5928 MiB available memory on the node where the printing process lives
------------------
     c_bands:  2 eigenvalues not converged
     c_bands:  1 eigenvalues not converged
     c_bands:  2 eigenvalues not converged
     ethr =  1.08E-09,  avg # of iterations =  5.7

     total cpu time spent up to now is      195.7 secs

     total energy              =    -517.49604962 Ry
     estimated scf accuracy    <       0.00001610 Ry

     total magnetization       =     2.69 Bohr mag/cell
     absolute magnetization    =     2.77 Bohr mag/cell

     iteration # 44     ecut=    93.00 Ry     beta= 0.70
     CG style diagonalization

---- Real-time Memory Report at c_bands before calling an iterative solver
           154 MiB given to the printing process from OS
             0 MiB allocation reported by mallinfo(arena+hblkhd)
          5930 MiB available memory on the node where the printing process lives
------------------
     c_bands:  2 eigenvalues not converged
     c_bands:  1 eigenvalues not converged
     c_bands:  1 eigenvalues not converged
     ethr =  1.08E-09,  avg # of iterations =  3.3

     total cpu time spent up to now is      199.7 secs

     total energy              =    -517.49605138 Ry
     estimated scf accuracy    <       0.00001570 Ry

     total magnetization       =     2.69 Bohr mag/cell
     absolute magnetization    =     2.77 Bohr mag/cell

     iteration # 45     ecut=    93.00 Ry     beta= 0.70
     CG style diagonalization

---- Real-time Memory Report at c_bands before calling an iterative solver
           155 MiB given to the printing process from OS
             0 MiB allocation reported by mallinfo(arena+hblkhd)
          5931 MiB available memory on the node where the printing process lives
------------------
     c_bands:  2 eigenvalues not converged
     c_bands:  2 eigenvalues not converged
     c_bands:  1 eigenvalues not converged
     c_bands:  4 eigenvalues not converged
     c_bands:  2 eigenvalues not converged
     ethr =  1.08E-09,  avg # of iterations =  7.7

     total cpu time spent up to now is      206.1 secs

     total energy              =    -517.49605717 Ry
     estimated scf accuracy    <       0.00026479 Ry

     total magnetization       =     2.70 Bohr mag/cell
     absolute magnetization    =     2.78 Bohr mag/cell

     iteration # 46     ecut=    93.00 Ry     beta= 0.70
     CG style diagonalization

---- Real-time Memory Report at c_bands before calling an iterative solver
           155 MiB given to the printing process from OS
             0 MiB allocation reported by mallinfo(arena+hblkhd)
          5930 MiB available memory on the node where the printing process lives
------------------
     c_bands:  2 eigenvalues not converged
     c_bands:  1 eigenvalues not converged
     ethr =  1.08E-09,  avg # of iterations =  3.3

     total cpu time spent up to now is      210.1 secs

     total energy              =    -517.49604661 Ry
     estimated scf accuracy    <       0.00027085 Ry

     total magnetization       =     2.70 Bohr mag/cell
     absolute magnetization    =     2.78 Bohr mag/cell

     iteration # 47     ecut=    93.00 Ry     beta= 0.70
     CG style diagonalization

---- Real-time Memory Report at c_bands before calling an iterative solver
           155 MiB given to the printing process from OS
             0 MiB allocation reported by mallinfo(arena+hblkhd)
          5930 MiB available memory on the node where the printing process lives
------------------
     c_bands:  2 eigenvalues not converged
     c_bands:  1 eigenvalues not converged
     c_bands:  1 eigenvalues not converged
     c_bands:  3 eigenvalues not converged
     c_bands:  2 eigenvalues not converged
     ethr =  1.08E-09,  avg # of iterations =  7.5

     total cpu time spent up to now is      216.5 secs

     total energy              =    -517.49605130 Ry
     estimated scf accuracy    <       0.00002711 Ry

     total magnetization       =     2.70 Bohr mag/cell
     absolute magnetization    =     2.78 Bohr mag/cell

     iteration # 48     ecut=    93.00 Ry     beta= 0.70
     CG style diagonalization

---- Real-time Memory Report at c_bands before calling an iterative solver
           155 MiB given to the printing process from OS
             0 MiB allocation reported by mallinfo(arena+hblkhd)
          5932 MiB available memory on the node where the printing process lives
------------------
     c_bands:  2 eigenvalues not converged
     c_bands:  1 eigenvalues not converged
     ethr =  1.08E-09,  avg # of iterations =  3.7

     total cpu time spent up to now is      220.8 secs

     total energy              =    -517.49605219 Ry
     estimated scf accuracy    <       0.00002312 Ry

     total magnetization       =     2.70 Bohr mag/cell
     absolute magnetization    =     2.78 Bohr mag/cell

     iteration # 49     ecut=    93.00 Ry     beta= 0.70
     CG style diagonalization

---- Real-time Memory Report at c_bands before calling an iterative solver
           155 MiB given to the printing process from OS
             0 MiB allocation reported by mallinfo(arena+hblkhd)
          5932 MiB available memory on the node where the printing process lives
------------------
     c_bands:  2 eigenvalues not converged
     c_bands:  1 eigenvalues not converged
     ethr =  1.08E-09,  avg # of iterations =  3.4

     total cpu time spent up to now is      224.8 secs

     total energy              =    -517.49605214 Ry
     estimated scf accuracy    <       0.00002786 Ry

     total magnetization       =     2.71 Bohr mag/cell
     absolute magnetization    =     2.78 Bohr mag/cell

     iteration # 50     ecut=    93.00 Ry     beta= 0.70
     CG style diagonalization

---- Real-time Memory Report at c_bands before calling an iterative solver
           155 MiB given to the printing process from OS
             0 MiB allocation reported by mallinfo(arena+hblkhd)
          5935 MiB available memory on the node where the printing process lives
------------------
     c_bands:  2 eigenvalues not converged
     c_bands:  1 eigenvalues not converged
     ethr =  1.08E-09,  avg # of iterations =  5.1

     total cpu time spent up to now is      229.8 secs

     total energy              =    -517.49605267 Ry
     estimated scf accuracy    <       0.00000822 Ry

     total magnetization       =     2.71 Bohr mag/cell
     absolute magnetization    =     2.79 Bohr mag/cell

     iteration # 51     ecut=    93.00 Ry     beta= 0.70
     CG style diagonalization

---- Real-time Memory Report at c_bands before calling an iterative solver
           155 MiB given to the printing process from OS
             0 MiB allocation reported by mallinfo(arena+hblkhd)
          5935 MiB available memory on the node where the printing process lives
------------------
     c_bands:  2 eigenvalues not converged
     c_bands:  1 eigenvalues not converged
     ethr =  1.08E-09,  avg # of iterations =  3.3

     total cpu time spent up to now is      233.9 secs

     total energy              =    -517.49605352 Ry
     estimated scf accuracy    <       0.00000717 Ry

     total magnetization       =     2.71 Bohr mag/cell
     absolute magnetization    =     2.79 Bohr mag/cell

     iteration # 52     ecut=    93.00 Ry     beta= 0.70
     CG style diagonalization

---- Real-time Memory Report at c_bands before calling an iterative solver
           155 MiB given to the printing process from OS
             0 MiB allocation reported by mallinfo(arena+hblkhd)
          5937 MiB available memory on the node where the printing process lives
------------------
     c_bands:  1 eigenvalues not converged
     c_bands:  1 eigenvalues not converged
     ethr =  1.08E-09,  avg # of iterations =  3.7

     total cpu time spent up to now is      238.0 secs

     total energy              =    -517.49605355 Ry
     estimated scf accuracy    <       0.00000640 Ry

     total magnetization       =     2.71 Bohr mag/cell
     absolute magnetization    =     2.79 Bohr mag/cell

     iteration # 53     ecut=    93.00 Ry     beta= 0.70
     CG style diagonalization

---- Real-time Memory Report at c_bands before calling an iterative solver
           155 MiB given to the printing process from OS
             0 MiB allocation reported by mallinfo(arena+hblkhd)
          5935 MiB available memory on the node where the printing process lives
------------------
     c_bands:  1 eigenvalues not converged
     c_bands:  1 eigenvalues not converged
     ethr =  1.08E-09,  avg # of iterations =  4.6

     total cpu time spent up to now is      242.7 secs

     total energy              =    -517.49605528 Ry
     estimated scf accuracy    <       0.00001817 Ry

     total magnetization       =     2.70 Bohr mag/cell
     absolute magnetization    =     2.78 Bohr mag/cell

     iteration # 54     ecut=    93.00 Ry     beta= 0.70
     CG style diagonalization

---- Real-time Memory Report at c_bands before calling an iterative solver
           155 MiB given to the printing process from OS
             0 MiB allocation reported by mallinfo(arena+hblkhd)
          5936 MiB available memory on the node where the printing process lives
------------------
     c_bands:  2 eigenvalues not converged
     c_bands:  2 eigenvalues not converged
     c_bands:  1 eigenvalues not converged
     ethr =  1.08E-09,  avg # of iterations =  6.2

     total cpu time spent up to now is      248.3 secs

     total energy              =    -517.49605447 Ry
     estimated scf accuracy    <       0.00002964 Ry

     total magnetization       =     2.70 Bohr mag/cell
     absolute magnetization    =     2.78 Bohr mag/cell

     iteration # 55     ecut=    93.00 Ry     beta= 0.70
     CG style diagonalization

---- Real-time Memory Report at c_bands before calling an iterative solver
           155 MiB given to the printing process from OS
             0 MiB allocation reported by mallinfo(arena+hblkhd)
          5935 MiB available memory on the node where the printing process lives
------------------
     c_bands:  1 eigenvalues not converged
     c_bands:  2 eigenvalues not converged
     ethr =  1.08E-09,  avg # of iterations =  5.7

     total cpu time spent up to now is      253.7 secs

     total energy              =    -517.49604890 Ry
     estimated scf accuracy    <       0.00002859 Ry

     total magnetization       =     2.70 Bohr mag/cell
     absolute magnetization    =     2.78 Bohr mag/cell

     iteration # 56     ecut=    93.00 Ry     beta= 0.70
     CG style diagonalization

---- Real-time Memory Report at c_bands before calling an iterative solver
           155 MiB given to the printing process from OS
             0 MiB allocation reported by mallinfo(arena+hblkhd)
          5939 MiB available memory on the node where the printing process lives
------------------
     c_bands:  1 eigenvalues not converged
     c_bands:  2 eigenvalues not converged
     c_bands:  1 eigenvalues not converged
     c_bands:  2 eigenvalues not converged
     ethr =  1.08E-09,  avg # of iterations =  7.0

     total cpu time spent up to now is      259.9 secs

     total energy              =    -517.49604803 Ry
     estimated scf accuracy    <       0.00000386 Ry

     total magnetization       =     2.71 Bohr mag/cell
     absolute magnetization    =     2.79 Bohr mag/cell

     iteration # 57     ecut=    93.00 Ry     beta= 0.70
     CG style diagonalization

---- Real-time Memory Report at c_bands before calling an iterative solver
           155 MiB given to the printing process from OS
             0 MiB allocation reported by mallinfo(arena+hblkhd)
          5932 MiB available memory on the node where the printing process lives
------------------
     c_bands:  1 eigenvalues not converged
     c_bands:  4 eigenvalues not converged
     c_bands:  2 eigenvalues not converged
     ethr =  1.08E-09,  avg # of iterations =  6.5

     total cpu time spent up to now is      265.6 secs

     total energy              =    -517.49603408 Ry
     estimated scf accuracy    <       0.00001856 Ry

     total magnetization       =     2.71 Bohr mag/cell
     absolute magnetization    =     2.79 Bohr mag/cell

     iteration # 58     ecut=    93.00 Ry     beta= 0.70
     CG style diagonalization

---- Real-time Memory Report at c_bands before calling an iterative solver
           155 MiB given to the printing process from OS
             0 MiB allocation reported by mallinfo(arena+hblkhd)
          5934 MiB available memory on the node where the printing process lives
------------------
     c_bands:  1 eigenvalues not converged
     c_bands:  2 eigenvalues not converged
     c_bands:  1 eigenvalues not converged
     c_bands:  3 eigenvalues not converged
     c_bands:  4 eigenvalues not converged
     c_bands:  4 eigenvalues not converged
     ethr =  1.08E-09,  avg # of iterations =  9.0

     total cpu time spent up to now is      272.7 secs

     total energy              =    -517.49603778 Ry
     estimated scf accuracy    <       0.00001637 Ry

     total magnetization       =     2.72 Bohr mag/cell
     absolute magnetization    =     2.80 Bohr mag/cell

     iteration # 59     ecut=    93.00 Ry     beta= 0.70
     CG style diagonalization

---- Real-time Memory Report at c_bands before calling an iterative solver
           156 MiB given to the printing process from OS
             0 MiB allocation reported by mallinfo(arena+hblkhd)
          5929 MiB available memory on the node where the printing process lives
------------------
     c_bands:  1 eigenvalues not converged
     c_bands:  2 eigenvalues not converged
     c_bands:  2 eigenvalues not converged
     c_bands:  5 eigenvalues not converged
     c_bands:  2 eigenvalues not converged
     ethr =  1.08E-09,  avg # of iterations =  7.8

     total cpu time spent up to now is      279.3 secs

     total energy              =    -517.49604100 Ry
     estimated scf accuracy    <       0.00001642 Ry

     total magnetization       =     2.72 Bohr mag/cell
     absolute magnetization    =     2.80 Bohr mag/cell

     iteration # 60     ecut=    93.00 Ry     beta= 0.70
     CG style diagonalization

---- Real-time Memory Report at c_bands before calling an iterative solver
           156 MiB given to the printing process from OS
             0 MiB allocation reported by mallinfo(arena+hblkhd)
          5928 MiB available memory on the node where the printing process lives
------------------
     c_bands:  1 eigenvalues not converged
     ethr =  1.08E-09,  avg # of iterations =  6.2

     total cpu time spent up to now is      285.1 secs

     total energy              =    -517.49604073 Ry
     estimated scf accuracy    <       0.00001308 Ry

     total magnetization       =     2.73 Bohr mag/cell
     absolute magnetization    =     2.80 Bohr mag/cell

     iteration # 61     ecut=    93.00 Ry     beta= 0.70
     CG style diagonalization

---- Real-time Memory Report at c_bands before calling an iterative solver
           156 MiB given to the printing process from OS
             0 MiB allocation reported by mallinfo(arena+hblkhd)
          5916 MiB available memory on the node where the printing process lives
------------------
     c_bands:  2 eigenvalues not converged
     ethr =  1.08E-09,  avg # of iterations =  6.0

     total cpu time spent up to now is      290.6 secs

     total energy              =    -517.49604144 Ry
     estimated scf accuracy    <       0.00000150 Ry

     total magnetization       =     2.74 Bohr mag/cell
     absolute magnetization    =     2.82 Bohr mag/cell

     iteration # 62     ecut=    93.00 Ry     beta= 0.70
     CG style diagonalization

---- Real-time Memory Report at c_bands before calling an iterative solver
           156 MiB given to the printing process from OS
             0 MiB allocation reported by mallinfo(arena+hblkhd)
          5921 MiB available memory on the node where the printing process lives
------------------
     c_bands:  2 eigenvalues not converged
     ethr =  1.08E-09,  avg # of iterations =  5.2

     total cpu time spent up to now is      295.6 secs

     total energy              =    -517.49604168 Ry
     estimated scf accuracy    <       0.00000126 Ry

     total magnetization       =     2.75 Bohr mag/cell
     absolute magnetization    =     2.83 Bohr mag/cell

     iteration # 63     ecut=    93.00 Ry     beta= 0.70
     CG style diagonalization

---- Real-time Memory Report at c_bands before calling an iterative solver
           156 MiB given to the printing process from OS
             0 MiB allocation reported by mallinfo(arena+hblkhd)
          5924 MiB available memory on the node where the printing process lives
------------------
     c_bands:  2 eigenvalues not converged
     c_bands:  2 eigenvalues not converged
     ethr =  1.08E-09,  avg # of iterations =  6.0

     total cpu time spent up to now is      301.1 secs

     total energy              =    -517.49603998 Ry
     estimated scf accuracy    <       0.00000048 Ry

     total magnetization       =     2.74 Bohr mag/cell
     absolute magnetization    =     2.82 Bohr mag/cell

     iteration # 64     ecut=    93.00 Ry     beta= 0.70
     CG style diagonalization

---- Real-time Memory Report at c_bands before calling an iterative solver
           156 MiB given to the printing process from OS
             0 MiB allocation reported by mallinfo(arena+hblkhd)
          5923 MiB available memory on the node where the printing process lives
------------------
     c_bands:  1 eigenvalues not converged
     c_bands:  2 eigenvalues not converged
     c_bands:  5 eigenvalues not converged
     c_bands:  4 eigenvalues not converged
     ethr =  8.52E-10,  avg # of iterations =  7.8

     total cpu time spent up to now is      307.6 secs

     total energy              =    -517.49603711 Ry
     estimated scf accuracy    <       0.00000065 Ry

     total magnetization       =     2.73 Bohr mag/cell
     absolute magnetization    =     2.81 Bohr mag/cell

     iteration # 65     ecut=    93.00 Ry     beta= 0.70
     CG style diagonalization

---- Real-time Memory Report at c_bands before calling an iterative solver
           156 MiB given to the printing process from OS
             0 MiB allocation reported by mallinfo(arena+hblkhd)
          5931 MiB available memory on the node where the printing process lives
------------------
     c_bands:  1 eigenvalues not converged
     c_bands:  2 eigenvalues not converged
     c_bands:  3 eigenvalues not converged
     c_bands:  5 eigenvalues not converged
     c_bands:  2 eigenvalues not converged
     ethr =  8.52E-10,  avg # of iterations =  7.6

     total cpu time spent up to now is      314.1 secs

     total energy              =    -517.49603237 Ry
     estimated scf accuracy    <       0.00000223 Ry

     total magnetization       =     2.73 Bohr mag/cell
     absolute magnetization    =     2.81 Bohr mag/cell

     iteration # 66     ecut=    93.00 Ry     beta= 0.70
     CG style diagonalization

---- Real-time Memory Report at c_bands before calling an iterative solver
           156 MiB given to the printing process from OS
             0 MiB allocation reported by mallinfo(arena+hblkhd)
          5928 MiB available memory on the node where the printing process lives
------------------
     c_bands:  1 eigenvalues not converged
     c_bands:  1 eigenvalues not converged
     c_bands:  1 eigenvalues not converged
     c_bands:  2 eigenvalues not converged
     c_bands:  2 eigenvalues not converged
     c_bands:  1 eigenvalues not converged
     c_bands:  5 eigenvalues not converged
     ethr =  8.52E-10,  avg # of iterations =  8.5

     total cpu time spent up to now is      321.0 secs

     total energy              =    -517.49602742 Ry
     estimated scf accuracy    <       0.00000163 Ry

     total magnetization       =     2.74 Bohr mag/cell
     absolute magnetization    =     2.81 Bohr mag/cell

     iteration # 67     ecut=    93.00 Ry     beta= 0.70
     CG style diagonalization

---- Real-time Memory Report at c_bands before calling an iterative solver
           156 MiB given to the printing process from OS
             0 MiB allocation reported by mallinfo(arena+hblkhd)
          5929 MiB available memory on the node where the printing process lives
------------------
     c_bands:  1 eigenvalues not converged
     c_bands:  4 eigenvalues not converged
     c_bands:  4 eigenvalues not converged
[...]
     c_bands:  4 eigenvalues not converged
     c_bands:  5 eigenvalues not converged
     ethr =  3.19E-11,  avg # of iterations =  9.9

     total cpu time spent up to now is      688.3 secs

     total energy              =    -517.49604429 Ry
     estimated scf accuracy    <       0.00000010 Ry

     total magnetization       =     2.74 Bohr mag/cell
     absolute magnetization    =     2.82 Bohr mag/cell

     iteration #114     ecut=    93.00 Ry     beta= 0.70
     CG style diagonalization

---- Real-time Memory Report at c_bands before calling an iterative solver
           158 MiB given to the printing process from OS
             0 MiB allocation reported by mallinfo(arena+hblkhd)
          5919 MiB available memory on the node where the printing process lives
------------------
     c_bands:  1 eigenvalues not converged
     c_bands:  1 eigenvalues not converged
     c_bands:  2 eigenvalues not converged
     c_bands:  2 eigenvalues not converged
     ethr =  3.19E-11,  avg # of iterations =  6.3

     total cpu time spent up to now is      694.0 secs

     total energy              =    -517.49604333 Ry
     estimated scf accuracy    <       0.00000012 Ry

     total magnetization       =     2.74 Bohr mag/cell
     absolute magnetization    =     2.82 Bohr mag/cell

     iteration #115     ecut=    93.00 Ry     beta= 0.70
     CG style diagonalization

---- Real-time Memory Report at c_bands before calling an iterative solver
           158 MiB given to the printing process from OS
             0 MiB allocation reported by mallinfo(arena+hblkhd)
          5923 MiB available memory on the node where the printing process lives
------------------
     c_bands:  1 eigenvalues not converged
     c_bands:  4 eigenvalues not converged
     c_bands:  3 eigenvalues not converged
     c_bands:  4 eigenvalues not converged
     c_bands:  3 eigenvalues not converged
     c_bands:  4 eigenvalues not converged
     c_bands:  1 eigenvalues not converged
     ethr =  3.19E-11,  avg # of iterations = 10.3

     total cpu time spent up to now is      702.2 secs

     total energy              =    -517.49604220 Ry
     estimated scf accuracy    <       0.00000005 Ry

     total magnetization       =     2.74 Bohr mag/cell
     absolute magnetization    =     2.82 Bohr mag/cell

     iteration #116     ecut=    93.00 Ry     beta= 0.70
     CG style diagonalization

---- Real-time Memory Report at c_bands before calling an iterative solver
           158 MiB given to the printing process from OS
             0 MiB allocation reported by mallinfo(arena+hblkhd)
          5924 MiB available memory on the node where the printing process lives
------------------
     c_bands:  1 eigenvalues not converged
     c_bands:  4 eigenvalues not converged
     c_bands:  4 eigenvalues not converged
     c_bands:  4 eigenvalues not converged
     c_bands:  3 eigenvalues not converged
     c_bands:  4 eigenvalues not converged
     c_bands:  1 eigenvalues not converged
     ethr =  3.19E-11,  avg # of iterations = 11.4

     total cpu time spent up to now is      710.7 secs

     total energy              =    -517.49604380 Ry
     estimated scf accuracy    <       0.00000002 Ry

     total magnetization       =     2.74 Bohr mag/cell
     absolute magnetization    =     2.82 Bohr mag/cell

     iteration #117     ecut=    93.00 Ry     beta= 0.70
     CG style diagonalization

---- Real-time Memory Report at c_bands before calling an iterative solver
           158 MiB given to the printing process from OS
             0 MiB allocation reported by mallinfo(arena+hblkhd)
          5929 MiB available memory on the node where the printing process lives
------------------
     c_bands:  1 eigenvalues not converged
     c_bands:  4 eigenvalues not converged
     c_bands:  1 eigenvalues not converged
     c_bands:  4 eigenvalues not converged
     c_bands:  3 eigenvalues not converged
     c_bands:  4 eigenvalues not converged
     c_bands:  1 eigenvalues not converged
     ethr =  3.02E-11,  avg # of iterations = 10.1

     total cpu time spent up to now is      718.6 secs

     total energy              =    -517.49604448 Ry
     estimated scf accuracy    <       0.00000002 Ry

     total magnetization       =     2.74 Bohr mag/cell
     absolute magnetization    =     2.82 Bohr mag/cell

     iteration #118     ecut=    93.00 Ry     beta= 0.70
     CG style diagonalization

---- Real-time Memory Report at c_bands before calling an iterative solver
           158 MiB given to the printing process from OS
             0 MiB allocation reported by mallinfo(arena+hblkhd)
          5930 MiB available memory on the node where the printing process lives
------------------
     c_bands:  1 eigenvalues not converged
     c_bands:  3 eigenvalues not converged
     c_bands:  2 eigenvalues not converged
     ethr =  3.02E-11,  avg # of iterations =  7.2

     Magnetic moment per site  (integrated on atomic sphere of radius R)
     atom   1 (R=0.292)  charge= 11.5659  magn=  0.6478
     atom   2 (R=0.292)  charge= 11.5665  magn=  0.6411
     atom   3 (R=0.292)  charge= 11.5665  magn=  0.6411
     atom   4 (R=0.292)  charge= 11.5665  magn=  0.6411

     total cpu time spent up to now is      725.2 secs

     End of self-consistent calculation

 ------ SPIN UP ------------


          k = 0.0000 0.0000 0.0000 (  8925 PWs)   bands (ev):

   -20.8766 -20.0610 -20.0593 -20.0593   1.9923   1.9923   1.9923   4.6112
     4.6112   4.6112   4.6119   4.6119   4.6119   6.4129   6.4129   6.4129
    18.3084  18.7658  18.7658  18.7660  19.6500  19.6500  19.6500  21.8134
    23.2312  23.2312  23.2312  23.3053  23.3053  23.3053  23.7538  23.7538

     occupation numbers 
     1.0000   1.0000   1.0000   1.0000   1.0000   1.0000   1.0000   1.0000
     1.0000   1.0000   1.0000   1.0000   1.0000   1.0000   1.0000   1.0000
     1.0000   1.0000   1.0000   1.0000   1.0000   1.0000   1.0000   1.0158
     0.6086   0.6086   0.6086   0.5268   0.5268   0.5268   0.1427   0.1426

          k = 0.0000 0.0000 0.3333 (  8894 PWs)   bands (ev):

   -20.6826 -20.2749 -20.0583 -20.0571   2.5321   2.5321   2.8509   3.8144
     3.8144   4.4572   4.4579   4.9599   5.0127   5.0127   5.9067   5.9067
    19.8010  20.0778  20.3372  20.3374  20.5578  21.1222  21.3188  21.3188
    22.6092  23.0896  23.0896  23.1041  23.1044  23.5196  23.5196  23.6341

     occupation numbers 
     1.0000   1.0000   1.0000   1.0000   1.0000   1.0000   1.0000   1.0000
     1.0000   1.0000   1.0000   1.0000   1.0000   1.0000   1.0000   1.0000
     1.0000   1.0000   1.0000   1.0000   1.0000   1.0002   1.0010   1.0010
     1.0698   0.7618   0.7618   0.7467   0.7464   0.3104   0.3104   0.2180

          k = 0.0000 0.3333 0.3333 (  8908 PWs)   bands (ev):

   -20.5308 -20.2190 -20.2179 -20.1098   2.7064   2.7072   2.9743   3.0493
     3.7467   4.2662   4.2669   5.2284   5.2534   5.2543   5.3003   6.1682
    20.0915  21.0908  21.0912  21.3786  21.5477  21.5478  21.6059  22.3302
    22.3966  22.3967  22.6746  23.1736  23.3612  23.4159  23.4251  23.4258

     occupation numbers 
     1.0000   1.0000   1.0000   1.0000   1.0000   1.0000   1.0000   1.0000
     1.0000   1.0000   1.0000   1.0000   1.0000   1.0000   1.0000   1.0000
     1.0000   1.0002   1.0002   1.0014   1.0041   1.0041   1.0056   1.0758
     1.0812   1.0813   1.0532   0.6722   0.4664   0.4095   0.4002   0.3995

          k = 0.3333 0.3333 0.3333 (  8904 PWs)   bands (ev):

   -20.4252 -20.2157 -20.2140 -20.2140   2.0586   2.0586   2.0593   2.6108
     4.8868   4.8880   4.8880   5.4546   5.4546   5.4551   5.9245   5.9245
    19.8265  20.5266  20.5266  20.5266  21.7575  21.7575  21.7578  22.2478
    22.9263  22.9267  22.9267  23.2848  23.2862  23.2862  23.3347  23.3347

     occupation numbers 
     1.0000   1.0000   1.0000   1.0000   1.0000   1.0000   1.0000   1.0000
     1.0000   1.0000   1.0000   1.0000   1.0000   1.0000   1.0000   1.0000
     1.0000   1.0000   1.0000   1.0000   1.0122   1.0122   1.0123   1.0661
     0.9131   0.9128   0.9128   0.5494   0.5478   0.5478   0.4948   0.4948

 ------ SPIN DOWN ----------


          k = 0.0000 0.0000 0.0000 (  8925 PWs)   bands (ev):

   -20.4818 -19.6529 -19.6529 -19.6513   2.2693   2.2693   2.2693   4.9195
     4.9195   4.9195   4.9206   4.9206   4.9206   6.7321   6.7321   6.7321
    18.4468  18.8772  18.8772  18.8780  19.7930  19.7930  19.7930  21.8990
    23.4706  23.4706  23.4706  23.9383  23.9383  23.9383  24.3538  24.3542

     occupation numbers 
     1.0000   1.0000   1.0000   1.0000   1.0000   1.0000   1.0000   1.0000
     1.0000   1.0000   1.0000   1.0000   1.0000   1.0000   1.0000   1.0000
     1.0000   1.0000   1.0000   1.0000   1.0000   1.0000   1.0000   1.0228
     0.3556   0.3556   0.3556   0.0664   0.0664   0.0664   0.0071   0.0071

          k = 0.0000 0.0000 0.3333 (  8894 PWs)   bands (ev):

   -20.2850 -19.8709 -19.6506 -19.6495   2.8137   2.8137   3.1329   4.1104
     4.1104   4.7585   4.7596   5.2589   5.3231   5.3231   6.2222   6.2222
    19.9301  20.2153  20.4822  20.4826  20.7141  21.2369  21.5337  21.5337
    22.8172  23.6036  23.6043  23.6257  23.6257  23.7740  23.7740  24.2675

     occupation numbers 
     1.0000   1.0000   1.0000   1.0000   1.0000   1.0000   1.0000   1.0000
     1.0000   1.0000   1.0000   1.0000   1.0000   1.0000   1.0000   1.0000
     1.0000   1.0000   1.0000   1.0000   1.0000   1.0005   1.0037   1.0037
     0.9891   0.2407   0.2402   0.2241   0.2241   0.1321   0.1321   0.0120

          k = 0.0000 0.3333 0.3333 (  8908 PWs)   bands (ev):

   -20.1308 -19.8141 -19.8130 -19.7030   2.9868   2.9875   3.2570   3.3352
     4.0341   4.5653   4.5663   5.5425   5.5651   5.5657   5.6087   6.4888
    20.2315  21.2548  21.2549  21.5873  21.7214  21.7315  21.7317  22.5369
    22.7298  22.7301  23.2137  23.6324  23.7567  23.7718  23.9297  24.0085

     occupation numbers 
     1.0000   1.0000   1.0000   1.0000   1.0000   1.0000   1.0000   1.0000
     1.0000   1.0000   1.0000   1.0000   1.0000   1.0000   1.0000   1.0000
     1.0000   1.0006   1.0006   1.0051   1.0103   1.0108   1.0108   1.0801
     1.0331   1.0329   0.6280   0.2193   0.1411   0.1332   0.0690   0.0478

          k = 0.3333 0.3333 0.3333 (  8904 PWs)   bands (ev):

   -20.0235 -19.8100 -19.8100 -19.8083   2.3323   2.3327   2.3327   2.8879
     5.1930   5.1930   5.1941   5.7701   5.7708   5.7708   6.2436   6.2436
    19.9716  20.6802  20.6802  20.6805  21.9440  21.9440  21.9441  22.4328
    23.4089  23.4089  23.4096  23.7983  23.7983  23.8601  23.8601  23.8612

     occupation numbers 
     1.0000   1.0000   1.0000   1.0000   1.0000   1.0000   1.0000   1.0000
     1.0000   1.0000   1.0000   1.0000   1.0000   1.0000   1.0000   1.0000
     1.0000   1.0000   1.0000   1.0000   1.0272   1.0272   1.0272   1.0829
     0.4166   0.4166   0.4159   0.1201   0.1201   0.0933   0.0933   0.0929

     the Fermi energy is    23.4247 ev

!    total energy              =    -517.49604458 Ry
     estimated scf accuracy    <          9.6E-09 Ry
     smearing contrib. (-TS)   =      -0.04112207 Ry
     internal energy E=F+TS    =    -517.45492251 Ry

     The total energy is F=E-TS. E is the sum of the following terms:
     one-electron contribution =      40.73285172 Ry
     hartree contribution      =      37.53202041 Ry
     xc contribution           =    -166.66466579 Ry
     ewald contribution        =    -429.05512886 Ry

     total magnetization       =     2.74 Bohr mag/cell
     absolute magnetization    =     2.81 Bohr mag/cell

     convergence has been achieved in 118 iterations

     Forces acting on atoms (cartesian axes, Ry/au):

     atom    1 type  1   force =     0.00000000    0.00000000    0.00000000
     atom    2 type  1   force =     0.00000000    0.00000000    0.00000000
     atom    3 type  1   force =     0.00000000    0.00000000    0.00000000
     atom    4 type  1   force =     0.00000000    0.00000000    0.00000000
     The non-local contrib.  to forces
     atom    1 type  1   force =     0.00000000    0.00000000    0.00000000
     atom    2 type  1   force =     0.00000000    0.00000000    0.00000000
     atom    3 type  1   force =     0.00000000    0.00000000    0.00000000
     atom    4 type  1   force =     0.00000000    0.00000000    0.00000000
     The ionic contribution  to forces
     atom    1 type  1   force =    -0.00000000   -0.00000000   -0.00000000
     atom    2 type  1   force =     0.00000000    0.00000000   -0.00000000
     atom    3 type  1   force =     0.00000000   -0.00000000    0.00000000
     atom    4 type  1   force =    -0.00000000    0.00000000    0.00000000
     The local contribution  to forces
     atom    1 type  1   force =     0.00000000    0.00000000    0.00000000
     atom    2 type  1   force =     0.00000000    0.00000000    0.00000000
     atom    3 type  1   force =     0.00000000    0.00000000    0.00000000
     atom    4 type  1   force =     0.00000000    0.00000000    0.00000000
     The core correction contribution to forces
     atom    1 type  1   force =     0.00000000    0.00000000    0.00000000
     atom    2 type  1   force =    -0.00000000   -0.00000000    0.00000000
     atom    3 type  1   force =    -0.00000000    0.00000000   -0.00000000
     atom    4 type  1   force =     0.00000000    0.00000000    0.00000000
     The Hubbard contrib.    to forces
     atom    1 type  1   force =     0.00000000    0.00000000    0.00000000
     atom    2 type  1   force =     0.00000000    0.00000000    0.00000000
     atom    3 type  1   force =     0.00000000    0.00000000    0.00000000
     atom    4 type  1   force =     0.00000000    0.00000000    0.00000000
     The SCF correction term to forces
     atom    1 type  1   force =    -0.00000000    0.00000000   -0.00000000
     atom    2 type  1   force =    -0.00000000    0.00000000   -0.00000000
     atom    3 type  1   force =     0.00000000   -0.00000000    0.00000000
     atom    4 type  1   force =     0.00000000   -0.00000000    0.00000000

     Total force =     0.000000     Total SCF correction =     0.000000


     Computing stress (Cartesian axis) and pressure

          total   stress  (Ry/bohr**3)                   (kbar)     P=       -8.89
  -0.00006044   0.00000000   0.00000000           -8.89        0.00        0.00
   0.00000000  -0.00006044   0.00000000            0.00       -8.89        0.00
   0.00000000   0.00000000  -0.00006044            0.00        0.00       -8.89

     kinetic stress (kbar)  31379.04      0.00      0.00
                                0.00  31379.04      0.00
                                0.00      0.00  31379.04

     local   stress (kbar)   8436.85     -0.00      0.00
                               -0.00   8436.85      0.00
                                0.00      0.00   8436.85

     nonloc. stress (kbar)   -642.88      0.00      0.00
                                0.00   -642.88      0.00
                                0.00      0.00   -642.88

     hartree stress (kbar)   3129.83      0.00      0.00
                                0.00   3129.83     -0.00
                                0.00     -0.00   3129.83

     exc-cor stress (kbar)  21047.77     -0.00     -0.00
                               -0.00  21047.77     -0.00
                               -0.00     -0.00  21047.77

     corecor stress (kbar) -27580.21     -0.00      0.00
                               -0.00 -27580.21      0.00
                                0.00      0.00 -27580.21

     ewald   stress (kbar) -35779.30      0.00     -0.00
                                0.00 -35779.30     -0.00
                               -0.00     -0.00 -35779.30

     hubbard stress (kbar)      0.00      0.00      0.00
                                0.00      0.00      0.00
                                0.00      0.00      0.00

     DFT-D   stress (kbar)      0.00      0.00      0.00
                                0.00      0.00      0.00
                                0.00      0.00      0.00

     XDM     stress (kbar)      0.00      0.00      0.00
                                0.00      0.00      0.00
                                0.00      0.00      0.00

     dft-nl  stress (kbar)      0.00      0.00      0.00
                                0.00      0.00      0.00
                                0.00      0.00      0.00

     TS-vdW  stress (kbar)      0.00      0.00      0.00
                                0.00      0.00      0.00
                                0.00      0.00      0.00


                                0.00      0.00      0.00
                                0.00      0.00      0.00


                                0.00      0.00      0.00


     Writing output data file ./Uranium.save/

     init_run     :      2.66s CPU      2.86s WALL (       1 calls)
     electrons    :    670.15s CPU    721.96s WALL (       1 calls)
     forces       :      3.51s CPU      4.75s WALL (       1 calls)
     stress       :      5.64s CPU      6.16s WALL (       1 calls)

     Called by init_run:
     wfcinit      :      0.46s CPU      0.47s WALL (       1 calls)
     wfcinit:wfcr :      0.42s CPU      0.43s WALL (       8 calls)
     potinit      :      0.37s CPU      0.37s WALL (       1 calls)
     hinit0       :      0.71s CPU      0.72s WALL (       1 calls)

     Called by electrons:
     c_bands      :    438.86s CPU    447.48s WALL (     118 calls)
     sum_band     :    107.88s CPU    130.28s WALL (     118 calls)
     v_of_rho     :     15.32s CPU     15.44s WALL (     119 calls)
     v_h          :      0.29s CPU      0.30s WALL (     119 calls)
     v_xc         :     15.26s CPU     15.38s WALL (     121 calls)
     newd         :    106.24s CPU    126.73s WALL (     119 calls)
     mix_rho      :      1.74s CPU      1.92s WALL (     118 calls)

     Called by c_bands:
     init_us_2    :      1.85s CPU      1.99s WALL (    1912 calls)
     ccgdiagg     :    384.21s CPU    392.08s WALL (    1033 calls)
     wfcrot       :     53.50s CPU     54.09s WALL (    1033 calls)

     Called by sum_band:
     sum_band:wei :      0.10s CPU      0.11s WALL (     118 calls)
     sum_band:loo :     18.98s CPU     19.25s WALL (     118 calls)
     sum_band:buf :      0.12s CPU      0.13s WALL (     944 calls)
     sum_band:ini :      0.86s CPU      0.90s WALL (     944 calls)
     sum_band:cal :      6.53s CPU      6.56s WALL (     944 calls)
     sum_band:bec :      0.53s CPU      0.53s WALL (     944 calls)
     addusdens    :     83.94s CPU    105.49s WALL (     118 calls)
     addusd:skk   :      0.07s CPU      0.09s WALL (     118 calls)
     addusd:dgemm :     31.32s CPU     48.73s WALL (     236 calls)
     addusd:qvan2 :     47.85s CPU     48.79s WALL (     236 calls)

     Called by *cgdiagg:
     h_psi        :    253.80s CPU    258.60s WALL (  178614 calls)
     s_psi        :     79.43s CPU     80.93s WALL (  356195 calls)

     Called by h_psi:
     h_psi:calbec :     51.61s CPU     52.56s WALL (  178614 calls)
     vloc_psi     :    152.29s CPU    155.42s WALL (  178614 calls)
     add_vuspsi   :     48.27s CPU     49.01s WALL (  178614 calls)
     hs_1psi      :    252.88s CPU    257.84s WALL (  177581 calls)
     s_1psi       :     77.02s CPU     78.56s WALL (  177581 calls)

     General routines
     calbec       :     97.56s CPU     99.51s WALL (  357179 calls)
     fft          :      6.19s CPU      6.31s WALL (    3013 calls)
     ffts         :      0.31s CPU      0.32s WALL (     474 calls)
     fftw         :    151.71s CPU    154.75s WALL (  451482 calls)
     interpolate  :      0.62s CPU      0.63s WALL (     238 calls)

     Parallel routines

     PWSCF        :  11m22.55s CPU  12m16.92s WALL


   This run was terminated on:  22:37:36   8Dec2021            

=------------------------------------------------------------------------------=
   JOB DONE.
=------------------------------------------------------------------------------=
